------------------------------------------------------------
          Invoking FHI-aims ...

          When using FHI-aims, please cite the following reference:

            Volker Blum, Ralf Gehrke, Felix Hanke, Paula Havu,
            Ville Havu, Xinguo Ren, Karsten Reuter, and Matthias Scheffler,
            'Ab Initio Molecular Simulations with Numeric Atom-Centered Orbitals',
            Computer Physics Communications 180, 2175-2196 (2009)

          In addition, many other developments in FHI-aims are likely important for
          your particular application. A partial list of references is given at the end of
          this file. Thank you for giving credit to the authors of these developments.

          For any questions about FHI-aims, please visit our slack channel at

            https://fhi-aims.slack.com

          and our main development and support site at

            https://aims-git.rz-berlin.mpg.de .

          The latter site, in particular, has a wiki to collect information, as well
          as an issue tracker to log discussions, suggest improvements, and report issues
          or bugs. https://aims-git.rz-berlin.mpg.de is also the main development site
          of the project and all new and updated code versions can be obtained there.
          Please send an email to aims-coordinators@fhi-berlin.mpg.de and we will add
          you to these sites. They are for you and everyone is welcome there.

------------------------------------------------------------



  Date     :  20240503, Time     :  172602.970
  Time zero on CPU 1             :   0.934600000000000E-01  s.
  Internal wall clock time zero  :           483989162.970  s.

  FHI-aims created a unique identifier for this run for later identification
  aims_uuid : FDECD391-A7D3-4EEF-AF9E-F1BB27828A08

  Build configuration of the current instance of FHI-aims
  -------------------------------------------------------
  FHI-aims version      : 210618
  Commit number         : f9e1e7592
  CMake host system     : Linux-3.10.0-1127.13.1.el7.x86_64
  CMake version         : 3.17.3
  Fortran compiler      : /apps/compilers/intel/2018.2/compilers_and_libraries_2018/linux/mpi/intel64/bin/mpif90 (Intel) version 18.0.2.20180210
  Fortran compiler flags: -O3 -ip -fp-model precise
  C compiler            : /apps/compilers/intel/2018.2/compilers_and_libraries_2018/linux/bin/intel64/icc (Intel) version 18.0.2.20180210
  C compiler flags      : -O3 -ip -fp-model precise -std=gnu99
  ELPA2 kernel          : AVX2
  Using MPI
  Using ScaLAPACK
  Using LibXC
  Using i-PI
  Using RLSY
  Linking against: /apps/compilers/intel/2018.2/compilers_and_libraries_2018/linux/mkl/lib/intel64/libmkl_intel_lp64.so
                   /apps/compilers/intel/2018.2/compilers_and_libraries_2018/linux/mkl/lib/intel64/libmkl_intel_thread.so
                   /apps/compilers/intel/2018.2/compilers_and_libraries_2018/linux/mkl/lib/intel64/libmkl_core.so
                   /apps/compilers/intel/2018.2/compilers_and_libraries_2018/linux/mkl/lib/intel64/libmkl_blacs_intelmpi_lp64.so
                   /apps/compilers/intel/2018.2/compilers_and_libraries_2018/linux/mkl/lib/intel64/libmkl_scalapack_lp64.so
                   /usr/lib64/libpthread.so

  Using       40 parallel tasks.
  Task        0 on host ccs0135 reporting.
  Task        1 on host ccs0135 reporting.
  Task        2 on host ccs0135 reporting.
  Task        3 on host ccs0135 reporting.
  Task        4 on host ccs0135 reporting.
  Task        5 on host ccs0135 reporting.
  Task        6 on host ccs0135 reporting.
  Task        7 on host ccs0135 reporting.
  Task        8 on host ccs0135 reporting.
  Task        9 on host ccs0135 reporting.
  Task       10 on host ccs0135 reporting.
  Task       11 on host ccs0135 reporting.
  Task       12 on host ccs0135 reporting.
  Task       13 on host ccs0135 reporting.
  Task       14 on host ccs0135 reporting.
  Task       15 on host ccs0135 reporting.
  Task       16 on host ccs0135 reporting.
  Task       17 on host ccs0135 reporting.
  Task       18 on host ccs0135 reporting.
  Task       19 on host ccs0135 reporting.
  Task       20 on host ccs0135 reporting.
  Task       21 on host ccs0135 reporting.
  Task       22 on host ccs0135 reporting.
  Task       23 on host ccs0135 reporting.
  Task       24 on host ccs0135 reporting.
  Task       25 on host ccs0135 reporting.
  Task       26 on host ccs0135 reporting.
  Task       27 on host ccs0135 reporting.
  Task       28 on host ccs0135 reporting.
  Task       29 on host ccs0135 reporting.
  Task       30 on host ccs0135 reporting.
  Task       31 on host ccs0135 reporting.
  Task       32 on host ccs0135 reporting.
  Task       33 on host ccs0135 reporting.
  Task       34 on host ccs0135 reporting.
  Task       35 on host ccs0135 reporting.
  Task       36 on host ccs0135 reporting.
  Task       37 on host ccs0135 reporting.
  Task       38 on host ccs0135 reporting.
  Task       39 on host ccs0135 reporting.

  Performing system and environment tests:
  *** Environment variable OMP_NUM_THREADS is not set
  *** For performance reasons you might want to set it to 1
  | Checking for ScaLAPACK...
  | Testing pdtran()...
  | All pdtran() tests passed.

  Obtaining array dimensions for all initial allocations:
  
  -----------------------------------------------------------------------
  Parsing control.in (first pass over file, find array dimensions only).
  The contents of control.in will be repeated verbatim below
  unless switched off by setting 'verbatim_writeout .false.' .
  in the first line of control.in .
  -----------------------------------------------------------------------
  
  #===============================================================================
  # FHI-aims file: ./control.in
  # Created using the Atomic Simulation Environment (ASE)
  # Mon Aug 21 17:26:29 2023
  #===============================================================================
  spin                               none
  relativistic                       atomic_zora scalar
  compute_forces                     .true.
  override_warning_libxc             true
  xc                                 libxc MGGA_X_MBEEF+GGA_C_PBE_SOL
  k_grid                             8 8 8
  occupation_type                    gaussian 0.1
  plus_u_petukhov_mixing             1
  plus_u_matrix_control              True
  plus_u_use_hydros                  True
  sc_accuracy_etot                   1e-06
  sc_accuracy_eev                    0.001
  sc_accuracy_rho                    1e-06
  sc_accuracy_forces                 0.0001
  relax_geometry                     bfgs 0.01
  #===============================================================================
  
  ################################################################################
  #
  #  FHI-aims code project
  #  VB, Fritz-Haber Institut, 2009
  #
  #  Suggested "light" defaults for Ce atom (to be pasted into control.in file)
  #  Be sure to double-check any results obtained with these settings for post-processing,
  #  e.g., with the "tight" defaults and larger basis sets.
  #
  ################################################################################
    species          Ce
  #     global species definitions
      nucleus        58
      mass           140.116
  #
      l_hartree      4
  #
      cut_pot        4.0  1.5  1.0
      basis_dep_cutoff    1e-4
  #
      radial_base    66  5.5
      radial_multiplier  1
      angular_grids specified
        division   0.1028  110
        division   0.1495  194
        division   0.8411  302
  #      division   0.9338  434
  #      division   0.9935  590
  #      division   1.0783  770
  #      division   3.5126  974
  #      outer_grid  974
        outer_grid  302
  ################################################################################
  #
  #  Definition of "minimal" basis
  #
  ################################################################################
  #     valence basis states
      valence      6  s   2.
      valence      5  p   6.
      valence      5  d   1.
      valence      4  f   1.
  #     ion occupancy
      ion_occ      6  s   1.
      ion_occ      5  p   6.
      ion_occ      5  d   0.
      ion_occ      4  f   0.
  ################################################################################
  #
  #  Suggested additional basis functions. For production calculations,
  #  uncomment them one after another (the most important basis functions are
  #  listed first).
  #
  #  Constructed for dimers: 2.0, 2.375, 2.875, 3.5, 4.5 AA
  #
  ################################################################################
  #  "First tier" - improvements: -540.10 meV to -12.77 meV
       hydro 4 d 4.8
       hydro 5 g 11.2
       hydro 4 f 7.6
       hydro 2 p 1.8
       hydro 3 s 2.7
  #  "Second tier" - improvements: -48.86 meV to -0.65 meV
  #     hydro 6 h 14.8
  #     hydro 4 f 5.2
  #     hydro 3 d 3
  #     hydro 3 d 2.2
  #     hydro 5 g 11.6
  #     hydro 3 p 2.8
  #     ionic 6 s auto
  #  "Third tier" - max. impr. -2.32 meV, min. impr. -0.31 meV
  #     hydro 6 h 15.2
  #     hydro 4 f 8.2
  #     hydro 5 g 30
  #     hydro 6 d 16.4
  #     hydro 5 f 15.6
  #     hydro 5 p 17.6
  #     hydro 4 s 7.2
  #  Fourth tier  - max. impr. -0.36 meV, min. impr. -0.17 meV
  #     hydro 5 g 20
  #     hydro 4 f 16.4
  #     hydro 6 d 20
  #     hydro 6 p 9.2
  #     hydro 1 s 0.85
  #     hydro 6 h 14
  plus_u 4 f 0
  hubbard_coefficient 1 0 0 0
  ################################################################################
  #
  #  FHI-aims code project
  #  VB, Fritz-Haber Institut, 2009
  #
  #  Suggested "light" defaults for O atom (to be pasted into control.in file)
  #  Be sure to double-check any results obtained with these settings for post-processing,
  #  e.g., with the "tight" defaults and larger basis sets.
  #
  ################################################################################
    species        O
  #     global species definitions
      nucleus             8
      mass                15.9994
  #
      l_hartree           4
  #
      cut_pot             3.5  1.5  1.0
      basis_dep_cutoff    1e-4
  #
      radial_base         36 5.0
      radial_multiplier   1
       angular_grids specified
        division   0.2659   50
        division   0.4451  110
        division   0.6052  194
        division   0.7543  302
  #      division   0.8014  434
  #      division   0.8507  590
  #      division   0.8762  770
  #      division   0.9023  974
  #      division   1.2339 1202
  #      outer_grid 974
        outer_grid 302
  ################################################################################
  #
  #  Definition of "minimal" basis
  #
  ################################################################################
  #     valence basis states
      valence      2  s   2.
      valence      2  p   4.
  #     ion occupancy
      ion_occ      2  s   1.
      ion_occ      2  p   3.
  ################################################################################
  #
  #  Suggested additional basis functions. For production calculations,
  #  uncomment them one after another (the most important basis functions are
  #  listed first).
  #
  #  Constructed for dimers: 1.0 A, 1.208 A, 1.5 A, 2.0 A, 3.0 A
  #
  ################################################################################
  #  "First tier" - improvements: -699.05 meV to -159.38 meV
       hydro 2 p 1.8
       hydro 3 d 7.6
       hydro 3 s 6.4
  #  "Second tier" - improvements: -49.91 meV to -5.39 meV
  #     hydro 4 f 11.6
  #     hydro 3 p 6.2
  #     hydro 3 d 5.6
  #     hydro 5 g 17.6
  #     hydro 1 s 0.75
  #  "Third tier" - improvements: -2.83 meV to -0.50 meV
  #     ionic 2 p auto
  #     hydro 4 f 10.8
  #     hydro 4 d 4.7
  #     hydro 2 s 6.8
  #  "Fourth tier" - improvements: -0.40 meV to -0.12 meV
  #     hydro 3 p 5
  #     hydro 3 s 3.3
  #     hydro 5 g 15.6
  #     hydro 4 f 17.6
  #     hydro 4 d 14
  # Further basis functions - -0.08 meV and below
  #     hydro 3 s 2.1
  #     hydro 4 d 11.6
  #     hydro 3 p 16
  #     hydro 2 s 17.2
  plus_u 2 p 0
  hubbard_coefficient 1 0 0 0
  
  -----------------------------------------------------------------------
  Completed first pass over input file control.in .
  -----------------------------------------------------------------------
  
  
  -----------------------------------------------------------------------
  Parsing geometry.in (first pass over file, find array dimensions only).
  The contents of geometry.in will be repeated verbatim below
  unless switched off by setting 'verbatim_writeout .false.' .
  in the first line of geometry.in .
  -----------------------------------------------------------------------
  
  #=======================================================
  # FHI-aims file: ./geometry.in
  # Created using the Atomic Simulation Environment (ASE)
  # Mon Aug 21 17:26:29 2023
  #=======================================================
  lattice_vector 5.4177999999999997 0.0000000000000000 0.0000000000000000
  lattice_vector 0.0000000000000000 5.4177999999999997 0.0000000000000000
  lattice_vector 0.0000000000000000 0.0000000000000000 5.4177999999999997
  atom_frac 0.0000000000000000 0.0000000000000000 0.0000000000000000 Ce
  atom_frac 0.0000000000000000 0.5000000000000000 0.5000000000000000 Ce
  atom_frac 0.5000000000000000 0.0000000000000000 0.5000000000000000 Ce
  atom_frac 0.5000000000000000 0.5000000000000000 0.0000000000000000 Ce
  atom_frac 0.2500000000000000 0.2500000000000000 0.7500000000000000 O
  atom_frac 0.2500000000000000 0.7500000000000000 0.2500000000000000 O
  atom_frac 0.7500000000000000 0.2500000000000000 0.2500000000000000 O
  atom_frac 0.7500000000000000 0.7500000000000000 0.7500000000000000 O
  atom_frac 0.7500000000000000 0.7500000000000000 0.2500000000000000 O
  atom_frac 0.7500000000000000 0.2500000000000000 0.7500000000000000 O
  atom_frac 0.2500000000000000 0.7500000000000000 0.7500000000000000 O
  atom_frac 0.2500000000000000 0.2500000000000000 0.2500000000000000 O
  
  -----------------------------------------------------------------------
  Completed first pass over input file geometry.in .
  -----------------------------------------------------------------------
  

  Basic array size parameters:
  | Number of species                 :        2
  | Number of atoms                   :       12
  | Number of lattice vectors         :        3
  | Max. basis fn. angular momentum   :        4
  | Max. atomic/ionic basis occupied n:        6
  | Max. number of basis fn. types    :        2
  | Max. radial fns per species/type  :       14
  | Max. logarithmic grid size        :     1463
  | Max. radial integration grid size :       66
  | Max. angular integration grid size:      302
  | Max. angular grid division number :        8
  | Radial grid for Hartree potential :     1463
  | Number of spin channels           :        1
  | Max. number of (n,l) shells per species with '+U' treatment:        1

------------------------------------------------------------
          Reading file control.in.
------------------------------------------------------------
  Spin treatment: No spin polarisation.
  Scalar relativistic treatment of kinetic energy: on-site free-atom approximation to ZORA.
  Forces will be computed.
  XC: Using LibXC. Please refer to LibXC output for further details.
  Using libxc - Initializing
  Libxc version: 4.3.4


  ** PLEASE ** be careful using LibXC. Whilst most of the LDA, GGA and MGGA functionals,
  and hybrid variations therein, should be stable (though we always recommend testing!),
  there are several fancy functionals with e.g. range-separation, like HSE03/HSE06/LC-PBEh,
  and also MGGA functionals that depend on the laplacian of the density, like BR89,
  that are not fully implemented due to the infrastrucutre for these functionals being incomplete or non-generic.
  If you want to use these functionals please contact the development team and we will work on them with you!

  You have selected libxc functional MGGA_X_MBEEF (249)
    - Description: mBEEF exchange
    - Type: MGGA(Exchange)
    - Reference to Literature:
      [1] J. Wellendorff, K. T. Lundgaard, K. W. Jacobsen, and T. Bligaard, J. Chem. Phys. 140, 144107 (2014)

  You have selected libxc functional GGA_C_PBE_SOL (133)
    - Description: Perdew, Burke & Ernzerhof SOL
    - Type: GGA(Correlation)
    - Reference to Literature:
      [1] J. P. Perdew, A. Ruzsinszky, G. I. Csonka, O. A. Vydrov, G. E. Scuseria, L. A. Constantin, X. Zhou, and K. Burke, Phys.

  Switching on meta-ggas
  Found k-point grid:         8         8         8
  Occupation type: Gaussian broadening, width =   0.100000E+00 eV.
  Fixing petukhov mixing factor to   1.000000000000
  hydrogenic basis funktions also used for DFT+U reference states
  Convergence accuracy of total energy:  0.1000E-05
  Convergence accuracy of sum of eigenvalues:  0.1000E-02
  Convergence accuracy of self-consistent charge density:  0.1000E-05
  Convergence accuracy of forces:  0.1000E-03
  Geometry relaxation: Modified BFGS - TRM (trust radius method) for lattice optimization.
  Convergence accuracy for geometry relaxation: Maximum force <   0.100000E-01 eV/A.
 
  Reading configuration options for species Ce                  .
  | Found nuclear charge :  58.0000
  | Found atomic mass :    140.116000000000      amu
  | Found l_max for Hartree potential  :   4
  | Found cutoff potl. onset [A], width [A], scale factor :    4.00000    1.50000    1.00000
  | Threshold for basis-dependent cutoff potential is   0.100000E-03
  | Found data for basic radial integration grid :    66 points, outermost radius =    5.500 A
  | Found multiplier for basic radial grid :   1
  | Found angular grid specification: user-specified.
  | Specified grid contains     4 separate shells.
  | Check grid settings after all constraints further below.
  | Found free-atom valence shell :  6 s   2.000
  | Found free-atom valence shell :  5 p   6.000
  | Found free-atom valence shell :  5 d   1.000
  | Found free-atom valence shell :  4 f   1.000
  | No ionic wave fns used. Skipping ion_occ.
  | No ionic wave fns used. Skipping ion_occ.
  | No ionic wave fns used. Skipping ion_occ.
  | No ionic wave fns used. Skipping ion_occ.
  | Found hydrogenic basis function :  4 d   4.800
  | Found hydrogenic basis function :  5 g  11.200
  | Found hydrogenic basis function :  4 f   7.600
  | Found hydrogenic basis function :  2 p   1.800
  | Found hydrogenic basis function :  3 s   2.700
  | Found request for '+U' treatment for  4 f shell, U =     0.000000 eV.
  | Found coefficents for linear combination of hubbard projectors 
  Species Ce                  : Missing cutoff potential type.
  Defaulting to exp(1/x)/(1-x)^2 type cutoff potential.
  Species Ce: No 'logarithmic' tag. Using default grid for free atom:
  | Default logarithmic grid data [bohr] : 0.1000E-03 0.1000E+03 0.1012E+01
  Species Ce: On-site basis accuracy parameter (for Gram-Schmidt orthonormalisation) not specified.
  Using default value basis_acc =  0.1000000E-03.
  Species Ce                  : Using default innermost maximum threshold i_radial=  2 for radial functions.
  Species Ce                  : Default cutoff onset for free atom density etc. : 0.40000000E+01 AA.
  Species Ce                  : Basic radial grid will be enhanced according to radial_multiplier =   1, to contain    66 grid points.
 
  Reading configuration options for species O                   .
  | Found nuclear charge :   8.0000
  | Found atomic mass :    15.9994000000000      amu
  | Found l_max for Hartree potential  :   4
  | Found cutoff potl. onset [A], width [A], scale factor :    3.50000    1.50000    1.00000
  | Threshold for basis-dependent cutoff potential is   0.100000E-03
  | Found data for basic radial integration grid :    36 points, outermost radius =    5.000 A
  | Found multiplier for basic radial grid :   1
  | Found angular grid specification: user-specified.
  | Specified grid contains     5 separate shells.
  | Check grid settings after all constraints further below.
  | Found free-atom valence shell :  2 s   2.000
  | Found free-atom valence shell :  2 p   4.000
  | No ionic wave fns used. Skipping ion_occ.
  | No ionic wave fns used. Skipping ion_occ.
  | Found hydrogenic basis function :  2 p   1.800
  | Found hydrogenic basis function :  3 d   7.600
  | Found hydrogenic basis function :  3 s   6.400
  | Found request for '+U' treatment for  2 p shell, U =     0.000000 eV.
  | Found coefficents for linear combination of hubbard projectors 
  Species O                   : Missing cutoff potential type.
  Defaulting to exp(1/x)/(1-x)^2 type cutoff potential.
  Species O : No 'logarithmic' tag. Using default grid for free atom:
  | Default logarithmic grid data [bohr] : 0.1000E-03 0.1000E+03 0.1012E+01
  Species O : On-site basis accuracy parameter (for Gram-Schmidt orthonormalisation) not specified.
  Using default value basis_acc =  0.1000000E-03.
  Species O                   : Using default innermost maximum threshold i_radial=  2 for radial functions.
  Species O                   : Default cutoff onset for free atom density etc. : 0.35000000E+01 AA.
  Species O                   : Basic radial grid will be enhanced according to radial_multiplier =   1, to contain    36 grid points.
 
  Finished reading input file 'control.in'.
 
------------------------------------------------------------


------------------------------------------------------------
          Reading geometry description geometry.in.
------------------------------------------------------------
  | The smallest distance between any two atoms is         2.34597622 AA.
  | The first atom of this pair is atom number                      1 .
  | The second atom of this pair is atom number                     8 .
  | Wigner-Seitz cell of the first atom image           0     0     0 .
  | (The Wigner-Seitz cell of the second atom is 0 0 0  by definition.)

  Symmetry information by spglib:
  | Precision set to  0.1E-04
  | Number of Operations  : 192
  | Space group           : 225
  | International         : Fm-3m   0
  | Schoenflies           : Oh^5
  Input structure read successfully.
  The structure contains       12 atoms,  and a total of        296.000 electrons.

  Input geometry:
  | Unit cell:
  |        5.41780000        0.00000000        0.00000000
  |        0.00000000        5.41780000        0.00000000
  |        0.00000000        0.00000000        5.41780000
  | Atomic structure:
  |       Atom                x [A]            y [A]            z [A]
  |    1: Species Ce            0.00000000        0.00000000        0.00000000
  |    2: Species Ce            0.00000000        2.70890000        2.70890000
  |    3: Species Ce            2.70890000        0.00000000        2.70890000
  |    4: Species Ce            2.70890000        2.70890000        0.00000000
  |    5: Species O             1.35445000        1.35445000        4.06335000
  |    6: Species O             1.35445000        4.06335000        1.35445000
  |    7: Species O             4.06335000        1.35445000        1.35445000
  |    8: Species O             4.06335000        4.06335000        4.06335000
  |    9: Species O             4.06335000        4.06335000        1.35445000
  |   10: Species O             4.06335000        1.35445000        4.06335000
  |   11: Species O             1.35445000        4.06335000        4.06335000
  |   12: Species O             1.35445000        1.35445000        1.35445000

  Lattice parameters for 3D lattice (in Angstroms) :     5.417800    5.417800    5.417800
  Angle(s) between unit vectors (in degrees)       :    90.000000   90.000000   90.000000


  Quantities derived from the lattice vectors:
  | Reciprocal lattice vector 1:  1.159730  0.000000  0.000000
  | Reciprocal lattice vector 2:  0.000000  1.159730  0.000000
  | Reciprocal lattice vector 3:  0.000000  0.000000  1.159730
  | Unit cell volume                               :   0.159026E+03  A^3

  Fractional coordinates:
                         L1                L2                L3
       atom_frac         0.00000000        0.00000000        0.00000000  Ce
       atom_frac         0.00000000        0.50000000        0.50000000  Ce
       atom_frac         0.50000000        0.00000000        0.50000000  Ce
       atom_frac         0.50000000        0.50000000        0.00000000  Ce
       atom_frac         0.25000000        0.25000000        0.75000000  O
       atom_frac         0.25000000        0.75000000        0.25000000  O
       atom_frac         0.75000000        0.25000000        0.25000000  O
       atom_frac         0.75000000        0.75000000        0.75000000  O
       atom_frac         0.75000000        0.75000000        0.25000000  O
       atom_frac         0.75000000        0.25000000        0.75000000  O
       atom_frac         0.25000000        0.75000000        0.75000000  O
       atom_frac         0.25000000        0.25000000        0.25000000  O

 
  Finished reading input file 'control.in'.
 

------------------------------------------------------------
          Reading geometry description geometry.in.
------------------------------------------------------------
 
  Consistency checks for stacksize environment parameter are next.
 
  | Maximum stacksize for task 0: unlimited
  | Maximum stacksize for task 1: unlimited
  | Maximum stacksize for task 2: unlimited
  | Maximum stacksize for task 3: unlimited
  | Maximum stacksize for task 4: unlimited
  | Maximum stacksize for task 5: unlimited
  | Maximum stacksize for task 6: unlimited
  | Maximum stacksize for task 7: unlimited
  | Maximum stacksize for task 8: unlimited
  | Maximum stacksize for task 9: unlimited
  | Maximum stacksize for task 10: unlimited
  | Maximum stacksize for task 11: unlimited
  | Maximum stacksize for task 12: unlimited
  | Maximum stacksize for task 13: unlimited
  | Maximum stacksize for task 14: unlimited
  | Maximum stacksize for task 15: unlimited
  | Maximum stacksize for task 16: unlimited
  | Maximum stacksize for task 17: unlimited
  | Maximum stacksize for task 18: unlimited
  | Maximum stacksize for task 19: unlimited
  | Maximum stacksize for task 20: unlimited
  | Maximum stacksize for task 21: unlimited
  | Maximum stacksize for task 22: unlimited
  | Maximum stacksize for task 23: unlimited
  | Maximum stacksize for task 24: unlimited
  | Maximum stacksize for task 25: unlimited
  | Maximum stacksize for task 26: unlimited
  | Maximum stacksize for task 27: unlimited
  | Maximum stacksize for task 28: unlimited
  | Maximum stacksize for task 29: unlimited
  | Maximum stacksize for task 30: unlimited
  | Maximum stacksize for task 31: unlimited
  | Maximum stacksize for task 32: unlimited
  | Maximum stacksize for task 33: unlimited
  | Maximum stacksize for task 34: unlimited
  | Maximum stacksize for task 35: unlimited
  | Maximum stacksize for task 36: unlimited
  | Maximum stacksize for task 37: unlimited
  | Maximum stacksize for task 38: unlimited
  | Maximum stacksize for task 39: unlimited
  | Current stacksize for task 0: unlimited
  | Current stacksize for task 1: unlimited
  | Current stacksize for task 2: unlimited
  | Current stacksize for task 3: unlimited
  | Current stacksize for task 4: unlimited
  | Current stacksize for task 5: unlimited
  | Current stacksize for task 6: unlimited
  | Current stacksize for task 7: unlimited
  | Current stacksize for task 8: unlimited
  | Current stacksize for task 9: unlimited
  | Current stacksize for task 10: unlimited
  | Current stacksize for task 11: unlimited
  | Current stacksize for task 12: unlimited
  | Current stacksize for task 13: unlimited
  | Current stacksize for task 14: unlimited
  | Current stacksize for task 15: unlimited
  | Current stacksize for task 16: unlimited
  | Current stacksize for task 17: unlimited
  | Current stacksize for task 18: unlimited
  | Current stacksize for task 19: unlimited
  | Current stacksize for task 20: unlimited
  | Current stacksize for task 21: unlimited
  | Current stacksize for task 22: unlimited
  | Current stacksize for task 23: unlimited
  | Current stacksize for task 24: unlimited
  | Current stacksize for task 25: unlimited
  | Current stacksize for task 26: unlimited
  | Current stacksize for task 27: unlimited
  | Current stacksize for task 28: unlimited
  | Current stacksize for task 29: unlimited
  | Current stacksize for task 30: unlimited
  | Current stacksize for task 31: unlimited
  | Current stacksize for task 32: unlimited
  | Current stacksize for task 33: unlimited
  | Current stacksize for task 34: unlimited
  | Current stacksize for task 35: unlimited
  | Current stacksize for task 36: unlimited
  | Current stacksize for task 37: unlimited
  | Current stacksize for task 38: unlimited
  | Current stacksize for task 39: unlimited
 
  Consistency checks for the contents of control.in are next.
 
  MPI_IN_PLACE appears to work with this MPI implementation.
  | Keeping use_mpi_in_place .true. (see manual).
  Target number of points in a grid batch is not set. Defaulting to  100
  Method for grid partitioning is not set. Defaulting to parallel hash+maxmin partitioning.
  Batch size limit is not set. Defaulting to    200
  By default, will store active basis functions for each batch.
  If in need of memory, prune_basis_once .false. can be used to disable this option.
  communication_type for Hartree potential was not specified.
  Defaulting to calc_hartree .
  Defaulting to Pulay charge density mixer.
  Pulay mixer: Number of relevant iterations not set.
  Defaulting to    8 iterations.
  Pulay mixer: Number of initial linear mixing iterations not set.
  Defaulting to    0 iterations.
  Work space size for distributed Hartree potential not set.
  Defaulting to   0.200000E+03 MB.
  Mixing parameter for charge density mixing has not been set.
  Using default: charge_mix_param =     0.0500.
  The mixing parameter will be adjusted in iteration number     2 of the first full s.c.f. cycle only.
  Algorithm-dependent basis array size parameters:
  | n_max_pulay                         :        8
  Maximum number of self-consistency iterations not provided.
  Presetting  1000 iterations.
  Presetting      1001 iterations before the initial mixing cycle
  is restarted anyway using the sc_init_iter criterion / keyword.
  Presetting a factor      1.000 between actual scf density residual
  and density convergence criterion sc_accuracy_rho below which sc_init_iter
  takes no effect.
  No maximum number of relaxation steps, defaulting to     1000
  Default initial Hessian is Lindh matrix (thres = 15.00) plus  0.200000E+01 eV/A^2 times unity.
  No maximum energy tolerance for TRM/BFGS moves, defaulting to   0.100000E-02
  Maximum energy tolerance by which TRM/BFGS trajectory may increase over multiple steps:   0.300000E-02
  No harmonic length scale. Defaulting to   0.250000E-01 A.
  No trust radius initializer. Defaulting to   0.200000E+00 A.
  Forces evaluation will include force correction term due to incomplete self-consistency (default).
  Handling of forces: Unphysical translation and rotation will be removed from forces.
  No accuracy limit for integral partition fn. given. Defaulting to  0.1000E-14.
  No threshold value for u(r) in integrations given. Defaulting to  0.1000E-05.
  No accuracy for occupation numbers given. Defaulting to  0.1000E-12.
  No threshold value for occupation numbers given. Defaulting to  0.0000E+00.
  No accuracy for fermi level given. Defaulting to  0.1000E-19.
  Maximum # of iterations to find E_F not set. Defaulting to  200.
  Preferred method for the eigenvalue solver ('KS_method') not specified in 'control.in'.
  Defaulting to serial version, LAPACK (via ELSI), since more k-points than CPUs available.
  Will not use alltoall communication since running on < 1024 CPUs.
  Threshold for basis singularities not set.
  Default threshold for basis singularities:  0.1000E-04
  partition_type (choice of integration weights) for integrals was not specified.
  | Using a version of the partition function of Stratmann and coworkers ('stratmann_sparse').
  | At each grid point, the set of atoms used to build the partition table is smoothly restricted to
  | only those atoms whose free-atom density would be non-zero at that grid point.
  Partitioning for Hartree potential was not defined. Using partition_type for integrals.
  | Adjusted default value of keyword multip_moments_threshold to:       0.10000000E-11
  | This value may affect high angular momentum components of the Hartree potential in periodic systems.
  Angular momentum expansion for Kerker preconditioner not set explicitly.
  | Using default value of   0
  No explicit requirement for turning off preconditioner.
  | By default, it will be turned off when the charge convergence reaches
  | sc_accuracy_rho  =   0.100000E-05
  | sc_accuracy_eev  =   0.100000E-02
  | sc_accuracy_etot =   0.100000E-05
  No special mixing parameter while Kerker preconditioner is on.
  Using default: charge_mix_param =     0.0500.
  No q(lm)/r^(l+1) cutoff set for long-range Hartree potential.
  | Using default value of  0.100000E-09 .
  | Verify using the multipole_threshold keyword.
  Defaulting to new monopole extrapolation.
  Density update method: automatic selection selected.
  Using density matrix based charge density update.
 * Warning: DFT+U requires using density matrix based charge density update.
  Using density matrix based charge density update.
  Using packed matrix style: index .
  Geometry relaxation: A file "geometry.in.next_step" is written out by default after each step.
  | This file contains the geometry of the current relaxation step as well as
  | the current Hessian matrix needed to restart the relaxation algorithm.
  | If you do not want part or all of this information, use the keywords
  | "write_restart_geometry" or "hessian_to_restart_geometry" to switch the output off.
  Defaulting to use time-reversal symmetry for k-point grid.
  Charge integration errors on the 3D integration grid will be compensated
  by explicit normalization and distribution of residual charges.
  Use the "compensate_multipole_errors" flag to change this behaviour.
  Set 'collect_eigenvectors' to be '.true.' for all serial calculations. This is mandatory.
  Set 'collect_eigenvectors' to be '.true.' for KS_method lapack_fast and serial.
 
  Consistency checks for the contents of geometry.in are next.
 

  Range separation radius for Ewald summation (hartree_convergence_parameter):      3.32894878 bohr.
  Number of empty states per atom not set in control.in - providing a guess from actual geometry.
  | Total number of empty states used during s.c.f. cycle:       60
  If you use a very high smearing, use empty_states (per atom!) in control.in to increase this value.

  Structure-dependent array size parameters: 
  | Maximum number of distinct radial functions  :       25
  | Maximum number of basis functions            :      372
  | Number of Kohn-Sham states (occupied + empty):      208
------------------------------------------------------------

------------------------------------------------------------
          Preparing all fixed parts of the calculation.
------------------------------------------------------------
  Determining machine precision:
    2.225073858507201E-308
  Setting up grids for atomic and cluster calculations.

  Creating wave function, potential, and density for free atoms.

  Species: Ce

  List of occupied orbitals and eigenvalues:
    n    l              occ      energy [Ha]    energy [eV]
    1    0           2.0000     -1547.754955    -42116.5552
    2    0           2.0000      -238.790123     -6497.8099
    3    0           2.0000       -51.038059     -1388.8163
    4    0           2.0000       -10.277926      -279.6766
    5    0           2.0000        -1.476890       -40.1882
    6    0           2.0000        -0.126077        -3.4307
    2    1           6.0000      -213.831902     -5818.6621
    3    1           6.0000       -43.180522     -1175.0018
    4    1           6.0000        -7.718454      -210.0298
    5    1           6.0000        -0.837136       -22.7796
    3    2          10.0000       -32.015577      -871.1882
    4    2          10.0000        -4.039017      -109.9072
    5    2           1.0000        -0.100697        -2.7401
    4    3           1.0000        -0.189336        -5.1521


  Species: O

  List of occupied orbitals and eigenvalues:
    n    l              occ      energy [Ha]    energy [eV]
    1    0           2.0000       -18.786109      -511.1960
    2    0           2.0000        -0.872635       -23.7456
    2    1           4.0000        -0.337687        -9.1889


  Adding cutoff potential to free-atom effective potential.
  Creating fixed part of basis set: Ionic, confined, hydrogenic.
 
  Ce                   hydrogenic:
 
  List of hydrogenic basis orbitals: 
    n    l      effective z      eigenvalue [eV]  inner max. [A]     outer max. [A]     outer radius [A]   
    4    2         4.800000       -19.4624           0.749324           2.307386           5.107649
    5    4        11.200000       -68.2675           1.177909           1.177909           4.357134
    4    3         7.600000       -49.1160           1.108066           1.108066           4.464979
    2    1         1.800000       -11.0067           1.177909           1.177909           5.045588
    3    0         2.700000       -10.6630           0.145623           2.482994           5.107649
 
 
  O                    hydrogenic:
 
  List of hydrogenic basis orbitals: 
    n    l      effective z      eigenvalue [eV]  inner max. [A]     outer max. [A]     outer radius [A]   
    2    1         1.800000       -10.9749           1.164242           1.164242           4.578029
    3    2         7.600000       -87.3180           0.624125           0.624125           3.251020
    3    0         6.400000       -61.9207           0.061167           1.081902           4.001998
 
  Creating atomic-like basis functions for current effective potential.

  Species Ce                  :

  List of atomic basis orbitals and eigenvalues:
    n    l      energy [Ha]    energy [eV]    outer radius [A]
    1    0     -1547.754955    -42116.5552       0.172807
    2    0      -238.790123     -6497.8099       0.465168
    3    0       -51.038059     -1388.8163       1.004828
    4    0       -10.277926      -279.6766       2.170571
    5    0        -1.476890       -40.1882       4.688742
    6    0        -0.126077        -3.4307       5.107649
    2    1      -213.831902     -5818.6621       0.476681
    3    1       -43.180522     -1175.0018       1.068164
    4    1        -7.718454      -210.0298       2.452825
    5    1        -0.837136       -22.7796       4.863894
    3    2       -32.015577      -871.1882       1.177909
    4    2        -4.039017      -109.9072       3.170740
    5    2        -0.100697        -2.7401       5.045588
    4    3        -0.189336        -5.1521       4.984282


  Species O                   :

  List of atomic basis orbitals and eigenvalues:
    n    l      energy [Ha]    energy [eV]    outer radius [A]
    1    0       -18.786109      -511.1960       1.433179
    2    0        -0.872635       -23.7456       4.413171
    2    1        -0.337687        -9.1889       4.522403

  Assembling full basis from fixed parts.
 * Warning - Since '+U' treatment was requested,
 * the basis-dependent cutoff is turned off automatically.
  | Species Ce :   atomic orbital   1 s accepted.
  | Species Ce :   atomic orbital   2 s accepted.
  | Species Ce :   atomic orbital   3 s accepted.
  | Species Ce :   atomic orbital   4 s accepted.
  | Species Ce :   atomic orbital   5 s accepted.
  | Species Ce :   atomic orbital   6 s accepted.
  | Species Ce :    hydro orbital   3 s accepted.
  | Species Ce :   atomic orbital   2 p accepted.
  | Species Ce :   atomic orbital   3 p accepted.
  | Species Ce :   atomic orbital   4 p accepted.
  | Species Ce :   atomic orbital   5 p accepted.
  | Species Ce :    hydro orbital   2 p accepted.
  | Species Ce :   atomic orbital   3 d accepted.
  | Species Ce :   atomic orbital   4 d accepted.
  | Species Ce :   atomic orbital   5 d accepted.
  | Species Ce :    hydro orbital   4 d accepted.
  | Species Ce :   atomic orbital   4 f accepted.
  | Species Ce :    hydro orbital   4 f accepted.
  | Species Ce :    hydro orbital   5 g accepted.
 * Warning - Since '+U' treatment was requested,
 * the basis-dependent cutoff is turned off automatically.
  | Species O :   atomic orbital   1 s accepted.
  | Species O :   atomic orbital   2 s accepted.
  | Species O :    hydro orbital   3 s accepted.
  | Species O :   atomic orbital   2 p accepted.
  | Species O :    hydro orbital   2 p accepted.
  | Species O :    hydro orbital   3 d accepted.
 
  Basis size parameters after reduction:
  | Total number of radial functions:       25
  | Total number of basis functions :      372
 
  Per-task memory consumption for arrays in subroutine allocate_ext:
  |           9.373600MB.
  Testing on-site integration grid accuracy.
  |  Species  Function  <phi|h_atom|phi> (log., in eV)  <phi|h_atom|phi> (rad., in eV)
           1        1             -42116.5552000452             -42116.4057294820 ***
           1        2              -6497.8098649475              -6497.8073288694
           1        3              -1388.8162542553              -1388.8161369664
           1        4               -279.6765866035               -279.6765779612
           1        5                -40.1882244898                -40.1882236397
           1        6                 -3.4541953950                 -3.4908835127 ***
           1        7                  9.9840314177                  9.8804503483 ***
           1        8              -5818.6621047996              -5818.6620999696
           1        9              -1175.0017773789              -1175.0017716704
           1       10               -210.0298181125               -210.0298154104
           1       11                -22.7796188980                -22.7796201102
           1       12                  1.4641550411                  1.4500588656
           1       13               -871.1881743844               -871.1881723752
           1       14               -109.9072392507               -109.9072379642
           1       15                 -2.7456941116                 -2.7545106055
           1       16                  7.0798564817                  7.0437478647 ***
           1       17                 -5.1521289642                 -5.1521798220
           1       18                 20.9023696792                 20.9021392042
           1       19                 36.1561458549                 36.1560712803
           2       20               -511.1960429777               -511.1959399133
           2       21                -23.7455964041                -23.7455972542
           2       22                 17.3746964700                 17.3748057881
           2       23                 -9.1890598667                 -9.1892026751
           2       24                  8.1915160719                  8.1720639763
           2       25                 45.8005976646                 45.8005620229
 * Note: Onsite integrals marked "***" above are less accurate than
 * onsite_accuracy_threshold =    0.03000 eV. Usually, this is harmless.
 * However, one integral did have a negative value. This integral could be important.
 * When in doubt, tighten the "radial" and/or "radial_multiplier" flags to check.

  Preparing densities etc. for the partition functions (integrals / Hartree potential).

  Preparations completed.
  max(cpu_time)          :      0.523 s.
  Wall clock time (cpu1) :      0.524 s.
------------------------------------------------------------

------------------------------------------------------------
          Begin self-consistency loop: Initialization.

          Date     :  20240503, Time     :  172603.838
------------------------------------------------------------

  Initializing index lists of integration centers etc. from given atomic structure:
  Mapping all atomic coordinates to central unit cell.

  Initializing the k-points
  Using symmetry for reducing the k-points
  | k-points reduced from:      512 to      260
  | Number of k-points                             :       260
  The eigenvectors in the calculations are COMPLEX.
  | K-points in task   0:         6
  | K-points in task   1:         7
  | K-points in task   2:         7
  | K-points in task   3:         7
  | K-points in task   4:         7
  | K-points in task   5:         7
  | K-points in task   6:         7
  | K-points in task   7:         7
  | K-points in task   8:         7
  | K-points in task   9:         7
  | K-points in task  10:         7
  | K-points in task  11:         7
  | K-points in task  12:         7
  | K-points in task  13:         7
  | K-points in task  14:         7
  | K-points in task  15:         7
  | K-points in task  16:         7
  | K-points in task  17:         7
  | K-points in task  18:         7
  | K-points in task  19:         7
  | K-points in task  20:         7
  | K-points in task  21:         6
  | K-points in task  22:         6
  | K-points in task  23:         6
  | K-points in task  24:         6
  | K-points in task  25:         6
  | K-points in task  26:         6
  | K-points in task  27:         6
  | K-points in task  28:         6
  | K-points in task  29:         6
  | K-points in task  30:         6
  | K-points in task  31:         6
  | K-points in task  32:         6
  | K-points in task  33:         6
  | K-points in task  34:         6
  | K-points in task  35:         6
  | K-points in task  36:         6
  | K-points in task  37:         6
  | K-points in task  38:         6
  | K-points in task  39:         6
  | Number of basis functions in the Hamiltonian integrals :      4655
  | Number of basis functions in a single unit cell        :       372
  | Number of centers in hartree potential         :      1309
  | Number of centers in hartree multipole         :       807
  | Number of centers in electron density summation:       597
  | Number of centers in basis integrals           :       633
  | Number of centers in integrals                 :       247
  | Number of centers in hamiltonian               :       726
  | Consuming        406 KiB for k_phase.
  | Number of super-cells (origin) [n_cells]                     :         729
  | Number of super-cells (after PM_index) [n_cells]             :         100
  | Number of super-cells in hamiltonian [n_cells_in_hamiltonian]:         100
  | Size of matrix packed + index [n_hamiltonian_matrix_size] :     1099597

  Initializing relaxation algorithms.
  Finished initialization of distributed Hessian storage.
  | Global dimension:        36
  | BLACS block size:         1
  | Number of workers:       36

  | Estimated reciprocal-space cutoff momentum G_max:         2.82515450 bohr^-1 .
  | Reciprocal lattice points for long-range Hartree potential:     436
  Partitioning the integration grid into batches with parallel hashing+maxmin method.
  | Number of batches:     1488
  | Maximal batch size:     110
  | Minimal batch size:      51
  | Average batch size:      78.806
  | Standard deviation of batch sizes:      13.605

  Integration load balanced across    40 MPI tasks.
  Work distribution over tasks is as follows:
  Task     0 has       2931 integration points.
  Task     1 has       2882 integration points.
  Task     2 has       2936 integration points.
  Task     3 has       2884 integration points.
  Task     4 has       2969 integration points.
  Task     5 has       2945 integration points.
  Task     6 has       2918 integration points.
  Task     7 has       2965 integration points.
  Task     8 has       2967 integration points.
  Task     9 has       2919 integration points.
  Task    10 has       2914 integration points.
  Task    11 has       2960 integration points.
  Task    12 has       2965 integration points.
  Task    13 has       2963 integration points.
  Task    14 has       2880 integration points.
  Task    15 has       2933 integration points.
  Task    16 has       2903 integration points.
  Task    17 has       2925 integration points.
  Task    18 has       2972 integration points.
  Task    19 has       2960 integration points.
  Task    20 has       2903 integration points.
  Task    21 has       2963 integration points.
  Task    22 has       2953 integration points.
  Task    23 has       2956 integration points.
  Task    24 has       2926 integration points.
  Task    25 has       2950 integration points.
  Task    26 has       2905 integration points.
  Task    27 has       2913 integration points.
  Task    28 has       2923 integration points.
  Task    29 has       2939 integration points.
  Task    30 has       2893 integration points.
  Task    31 has       2883 integration points.
  Task    32 has       2952 integration points.
  Task    33 has       2894 integration points.
  Task    34 has       2907 integration points.
  Task    35 has       2900 integration points.
  Task    36 has       2959 integration points.
  Task    37 has       2960 integration points.
  Task    38 has       2926 integration points.
  Task    39 has       2968 integration points.
  Initializing partition tables, free-atom densities, potentials, etc. across the integration grid (initialize_grid_storage).
  | initialize_grid_storage: Actual outermost partition radius vs. multipole_radius_free
  | (-- VB: in principle, multipole_radius_free should be larger, hence this output)
  | Species        1: Confinement radius =              5.500000000000000 AA, multipole_radius_free =              5.563982661062307 AA.
  | Species        1: outer_partition_radius set to              5.563982661062307 AA .
  | Species        2: Confinement radius =              4.999999999999999 AA, multipole_radius_free =              5.048384829883283 AA.
  | Species        2: outer_partition_radius set to              5.048384829883283 AA .
  | The sparse table of interatomic distances needs       1685.75 kbyte instead of      3205.51 kbyte of memory.
  | Net number of integration points:   117264
  | of which are non-zero points    :   103304
  | Numerical average free-atom electrostatic potential    :    -23.39014806 eV
  Renormalizing the initial density to the exact electron count on the 3D integration grid.
  | Initial density: Formal number of electrons (from input files) :     296.0000000000
  | Integrated number of electrons on 3D grid     :     296.0123761993
  | Charge integration error                      :       0.0123761993
  | Normalization factor for density and gradient :       0.9999581903
  Renormalizing the free-atom superposition density to the exact electron count on the 3D integration grid.
  | Formal number of electrons (from input files) :     296.0000000000
  | Integrated number of electrons on 3D grid     :     296.0123761993
  | Charge integration error                      :       0.0123761993
  | Normalization factor for density and gradient :       0.9999581903
  Obtaining max. number of non-zero basis functions in each batch (get_n_compute_maxes).
  | Maximal number of non-zero basis functions:     1101 in task     0
  | Maximal number of non-zero basis functions:     1113 in task     1
  | Maximal number of non-zero basis functions:     1086 in task     2
  | Maximal number of non-zero basis functions:     1087 in task     3
  | Maximal number of non-zero basis functions:     1109 in task     4
  | Maximal number of non-zero basis functions:     1104 in task     5
  | Maximal number of non-zero basis functions:     1120 in task     6
  | Maximal number of non-zero basis functions:     1110 in task     7
  | Maximal number of non-zero basis functions:     1095 in task     8
  | Maximal number of non-zero basis functions:     1119 in task     9
  | Maximal number of non-zero basis functions:     1095 in task    10
  | Maximal number of non-zero basis functions:     1113 in task    11
  | Maximal number of non-zero basis functions:     1117 in task    12
  | Maximal number of non-zero basis functions:     1112 in task    13
  | Maximal number of non-zero basis functions:     1093 in task    14
  | Maximal number of non-zero basis functions:     1086 in task    15
  | Maximal number of non-zero basis functions:     1110 in task    16
  | Maximal number of non-zero basis functions:     1120 in task    17
  | Maximal number of non-zero basis functions:     1118 in task    18
  | Maximal number of non-zero basis functions:     1118 in task    19
  | Maximal number of non-zero basis functions:     1131 in task    20
  | Maximal number of non-zero basis functions:     1112 in task    21
  | Maximal number of non-zero basis functions:     1122 in task    22
  | Maximal number of non-zero basis functions:     1080 in task    23
  | Maximal number of non-zero basis functions:     1101 in task    24
  | Maximal number of non-zero basis functions:     1137 in task    25
  | Maximal number of non-zero basis functions:     1137 in task    26
  | Maximal number of non-zero basis functions:     1101 in task    27
  | Maximal number of non-zero basis functions:     1100 in task    28
  | Maximal number of non-zero basis functions:     1095 in task    29
  | Maximal number of non-zero basis functions:     1093 in task    30
  | Maximal number of non-zero basis functions:     1113 in task    31
  | Maximal number of non-zero basis functions:     1122 in task    32
  | Maximal number of non-zero basis functions:     1117 in task    33
  | Maximal number of non-zero basis functions:     1113 in task    34
  | Maximal number of non-zero basis functions:     1135 in task    35
  | Maximal number of non-zero basis functions:     1100 in task    36
  | Maximal number of non-zero basis functions:     1131 in task    37
  | Maximal number of non-zero basis functions:     1080 in task    38
  | Maximal number of non-zero basis functions:     1135 in task    39
  Allocating        7.084 MB for KS_eigenvector_complex
  Integrating Hamiltonian matrix: batch-based integration.
  Time summed over all CPUs for integration: real work       25.257 s, elapsed       27.043 s
  Integrating overlap matrix.
  Time summed over all CPUs for integration: real work       16.627 s, elapsed       17.892 s
  Decreasing sparse matrix size:
  | Tolerance:  0.1000E-12
  Hamiltonian matrix
  | Array has   729838 nonzero elements out of  1099597 elements
  | Sparsity factor is 0.336
  Overlap matrix
  | Array has   670784 nonzero elements out of  1099597 elements
  | Sparsity factor is 0.390
  New size of hamiltonian matrix:      737981

  Updating Kohn-Sham eigenvalues and eigenvectors using ELSI and the (modified) LAPACK eigensolver.
  Singularity check in k-point 40, task 0 (analysis for other k-points/tasks may follow below):
  Overlap matrix is not singular
  | Lowest and highest eigenvalues :  0.8011E-03,  0.8038E+01
  Finished singularity check of overlap matrix
  | Time :     0.027 s
  Starting LAPACK eigensolver
  Finished Cholesky decomposition
  | Time :     0.004 s
  Finished transformation to standard eigenproblem
  | Time :     0.011 s
  Finished solving standard eigenproblem
  | Time :     0.029 s
  Finished back-transformation of eigenvectors
  | Time :     0.004 s

  Obtaining occupation numbers and chemical potential using ELSI.
  | Chemical potential (Fermi level):    -8.88368947 eV
  Writing Kohn-Sham eigenvalues.
  K-point:       1 at    0.000000    0.000000    0.000000 (in units of recip. lattice)

  State    Occupation    Eigenvalue [Ha]    Eigenvalue [eV]
      1       2.00000       -1547.758328       -42116.64697
      2       2.00000       -1547.758328       -42116.64697
      3       2.00000       -1547.758328       -42116.64697
      4       2.00000       -1547.758328       -42116.64697
      5       2.00000        -238.793761        -6497.90884
      6       2.00000        -238.793761        -6497.90884
      7       2.00000        -238.793761        -6497.90884
      8       2.00000        -238.793761        -6497.90884
      9       2.00000        -213.835524        -5818.76066
     10       2.00000        -213.835524        -5818.76066
     11       2.00000        -213.835524        -5818.76066
     12       2.00000        -213.835524        -5818.76066
     13       2.00000        -213.835524        -5818.76066
     14       2.00000        -213.835524        -5818.76066
     15       2.00000        -213.835524        -5818.76066
     16       2.00000        -213.835524        -5818.76066
     17       2.00000        -213.835524        -5818.76066
     18       2.00000        -213.835524        -5818.76066
     19       2.00000        -213.835524        -5818.76066
     20       2.00000        -213.835524        -5818.76066
     21       2.00000         -51.042058        -1388.92507
     22       2.00000         -51.042058        -1388.92507
     23       2.00000         -51.042058        -1388.92507
     24       2.00000         -51.042058        -1388.92507
     25       2.00000         -43.184521        -1175.11060
     26       2.00000         -43.184521        -1175.11060
     27       2.00000         -43.184521        -1175.11060
     28       2.00000         -43.184521        -1175.11060
     29       2.00000         -43.184521        -1175.11060
     30       2.00000         -43.184521        -1175.11060
     31       2.00000         -43.184521        -1175.11060
     32       2.00000         -43.184521        -1175.11060
     33       2.00000         -43.184521        -1175.11060
     34       2.00000         -43.184521        -1175.11060
     35       2.00000         -43.184521        -1175.11060
     36       2.00000         -43.184521        -1175.11060
     37       2.00000         -32.019526         -871.29564
     38       2.00000         -32.019526         -871.29564
     39       2.00000         -32.019526         -871.29564
     40       2.00000         -32.019526         -871.29564
     41       2.00000         -32.019526         -871.29564
     42       2.00000         -32.019526         -871.29564
     43       2.00000         -32.019526         -871.29564
     44       2.00000         -32.019526         -871.29564
     45       2.00000         -32.019526         -871.29564
     46       2.00000         -32.019526         -871.29564
     47       2.00000         -32.019526         -871.29564
     48       2.00000         -32.019526         -871.29564
     49       2.00000         -32.019524         -871.29558
     50       2.00000         -32.019524         -871.29558
     51       2.00000         -32.019524         -871.29558
     52       2.00000         -32.019524         -871.29558
     53       2.00000         -32.019524         -871.29558
     54       2.00000         -32.019524         -871.29558
     55       2.00000         -32.019524         -871.29558
     56       2.00000         -32.019524         -871.29558
     57       2.00000         -18.915792         -514.72489
     58       2.00000         -18.915792         -514.72489
     59       2.00000         -18.915792         -514.72489
     60       2.00000         -18.915792         -514.72489
     61       2.00000         -18.915792         -514.72489
     62       2.00000         -18.915792         -514.72489
     63       2.00000         -18.915792         -514.72489
     64       2.00000         -18.915792         -514.72489
     65       2.00000         -10.283534         -279.82919
     66       2.00000         -10.283534         -279.82919
     67       2.00000         -10.283534         -279.82919
     68       2.00000         -10.283534         -279.82919
     69       2.00000          -7.724368         -210.19075
     70       2.00000          -7.724368         -210.19075
     71       2.00000          -7.724368         -210.19075
     72       2.00000          -7.724368         -210.19075
     73       2.00000          -7.724368         -210.19075
     74       2.00000          -7.724368         -210.19075
     75       2.00000          -7.724368         -210.19075
     76       2.00000          -7.724368         -210.19075
     77       2.00000          -7.724368         -210.19075
     78       2.00000          -7.724368         -210.19075
     79       2.00000          -7.724368         -210.19075
     80       2.00000          -7.724368         -210.19075
     81       2.00000          -4.045741         -110.09023
     82       2.00000          -4.045741         -110.09023
     83       2.00000          -4.045741         -110.09023
     84       2.00000          -4.045741         -110.09022
     85       2.00000          -4.045741         -110.09022
     86       2.00000          -4.045741         -110.09022
     87       2.00000          -4.045740         -110.09019
     88       2.00000          -4.045740         -110.09019
     89       2.00000          -4.045740         -110.09019
     90       2.00000          -4.045740         -110.09019
     91       2.00000          -4.045740         -110.09019
     92       2.00000          -4.045740         -110.09019
     93       2.00000          -4.045537         -110.08467
     94       2.00000          -4.045537         -110.08467
     95       2.00000          -4.045537         -110.08467
     96       2.00000          -4.045537         -110.08467
     97       2.00000          -4.045537         -110.08467
     98       2.00000          -4.045537         -110.08466
     99       2.00000          -4.045537         -110.08466
    100       2.00000          -4.045537         -110.08466
    101       2.00000          -1.519066          -41.33589
    102       2.00000          -1.503944          -40.92440
    103       2.00000          -1.503944          -40.92440
    104       2.00000          -1.503944          -40.92440
    105       2.00000          -1.116109          -30.37088
    106       2.00000          -1.116109          -30.37088
    107       2.00000          -1.116109          -30.37088
    108       2.00000          -1.054897          -28.70521
    109       2.00000          -1.054897          -28.70521
    110       2.00000          -1.054897          -28.70521
    111       2.00000          -1.052634          -28.64363
    112       2.00000          -1.031159          -28.05926
    113       2.00000          -0.903999          -24.59906
    114       2.00000          -0.903999          -24.59906
    115       2.00000          -0.903999          -24.59906
    116       2.00000          -0.903999          -24.59906
    117       2.00000          -0.903999          -24.59906
    118       2.00000          -0.903999          -24.59906
    119       2.00000          -0.872602          -23.74470
    120       2.00000          -0.872602          -23.74470
    121       2.00000          -0.872602          -23.74470
    122       2.00000          -0.792225          -21.55754
    123       2.00000          -0.792225          -21.55754
    124       2.00000          -0.792225          -21.55754
    125       2.00000          -0.591028          -16.08268
    126       2.00000          -0.591028          -16.08268
    127       2.00000          -0.591028          -16.08268
    128       2.00000          -0.585745          -15.93894
    129       2.00000          -0.585745          -15.93894
    130       2.00000          -0.585745          -15.93894
    131       2.00000          -0.497328          -13.53298
    132       2.00000          -0.497328          -13.53298
    133       2.00000          -0.497328          -13.53298
    134       2.00000          -0.497328          -13.53298
    135       2.00000          -0.497328          -13.53298
    136       2.00000          -0.497328          -13.53298
    137       2.00000          -0.487359          -13.26173
    138       2.00000          -0.487359          -13.26173
    139       2.00000          -0.487359          -13.26173
    140       2.00000          -0.487359          -13.26173
    141       2.00000          -0.487359          -13.26173
    142       2.00000          -0.487359          -13.26173
    143       2.00000          -0.483182          -13.14806
    144       2.00000          -0.483182          -13.14806
    145       2.00000          -0.483182          -13.14806
    146       2.00000          -0.477214          -12.98565
    147       2.00000          -0.477214          -12.98565
    148       2.00000          -0.477214          -12.98565
    149       0.00000          -0.214840           -5.84610
    150       0.00000          -0.214840           -5.84610
    151       0.00000          -0.214840           -5.84610
    152       0.00000          -0.206604           -5.62197
    153       0.00000          -0.206604           -5.62197
    154       0.00000          -0.206604           -5.62197
    155       0.00000          -0.206604           -5.62197
    156       0.00000          -0.206604           -5.62197
    157       0.00000          -0.206604           -5.62197
    158       0.00000          -0.198266           -5.39510
    159       0.00000          -0.198266           -5.39510
    160       0.00000          -0.198266           -5.39510
    161       0.00000          -0.197168           -5.36520
    162       0.00000          -0.197168           -5.36520
    163       0.00000          -0.197168           -5.36520
    164       0.00000          -0.193516           -5.26583
    165       0.00000          -0.193516           -5.26583
    166       0.00000          -0.193516           -5.26583
    167       0.00000          -0.193516           -5.26583
    168       0.00000          -0.193516           -5.26583
    169       0.00000          -0.193516           -5.26583
    170       0.00000          -0.190676           -5.18857
    171       0.00000          -0.190676           -5.18857
    172       0.00000          -0.190676           -5.18857
    173       0.00000          -0.190516           -5.18421
    174       0.00000          -0.190516           -5.18421
    175       0.00000          -0.190516           -5.18421
    176       0.00000          -0.190207           -5.17580
    177       0.00000          -0.183783           -5.00099
    178       0.00000          -0.183783           -5.00099
    179       0.00000          -0.183783           -5.00099
    180       0.00000          -0.141019           -3.83733
    181       0.00000          -0.141019           -3.83733
    182       0.00000          -0.138891           -3.77942
    183       0.00000          -0.076426           -2.07965
    184       0.00000          -0.076426           -2.07965
    185       0.00000          -0.076426           -2.07965
    186       0.00000          -0.053804           -1.46408
    187       0.00000          -0.053804           -1.46408
    188       0.00000          -0.053804           -1.46408
    189       0.00000           0.016623            0.45232
    190       0.00000           0.016623            0.45232
    191       0.00000           0.016623            0.45232
    192       0.00000           0.016623            0.45232
    193       0.00000           0.016623            0.45232
    194       0.00000           0.016623            0.45232
    195       0.00000           0.050773            1.38161
    196       0.00000           0.050773            1.38161
    197       0.00000           0.050773            1.38161
    198       0.00000           0.187892            5.11281
    199       0.00000           0.187892            5.11281
    200       0.00000           0.187892            5.11281
    201       0.00000           0.212583            5.78468
    202       0.00000           0.212583            5.78468
    203       0.00000           0.212583            5.78468
    204       0.00000           0.309427            8.41993
    205       0.00000           0.309427            8.41993
    206       0.00000           0.309427            8.41993
    207       0.00000           0.309427            8.41993
    208       0.00000           0.309427            8.41993

  What follows are estimated values for band gap, HOMO, LUMO, etc.
  | They are estimated on a discrete k-point grid and not necessarily exact.
  | For converged numbers, create a DOS and/or band structure plot on a denser k-grid.

  Highest occupied state (VBM) at    -12.58553181 eV (relative to internal zero)
  | Occupation number:      2.00000000
  | K-point:     182 at    0.500000    0.000000    0.500000 (in units of recip. lattice)

  Lowest unoccupied state (CBM) at    -6.04144850 eV (relative to internal zero)
  | Occupation number:      0.00000000
  | K-point:       5 at    0.000000    0.000000    0.500000 (in units of recip. lattice)

  ESTIMATED overall HOMO-LUMO gap:      6.54408331 eV between HOMO at k-point 182 and LUMO at k-point 5
  | This appears to be an indirect band gap.
  | Smallest direct gap :      6.62097589 eV for k_point 22 at    0.000000    0.375000    0.625000 (in units of recip. lattice)
  The gap value is above 0.2 eV. Unless you are using a very sparse k-point grid,
  this system is most likely an insulator or a semiconductor.
  Calculating total energy contributions from superposition of free atom densities.

  Total energy components:
  | Sum of eigenvalues            :      -22956.94186277 Ha     -624690.17197199 eV
  | XC energy correction          :        -881.80382190 Ha      -23995.10285120 eV
  | XC potential correction       :        1169.30057719 Ha       31818.28760187 eV
  | Free-atom electrostatic energy:      -13994.18270770 Ha     -380801.08642249 eV
  | Hartree energy correction     :           0.00000000 Ha           0.00000000 eV
  | DFT+U energy correction       :           0.00000000 Ha           0.00000000 eV
  | Entropy correction            :           0.00000000 Ha           0.00000000 eV
  | ---------------------------
  | Total energy                  :      -36663.62781518 Ha     -997668.07364381 eV
  | Total energy, T -> 0          :      -36663.62781518 Ha     -997668.07364381 eV  <-- do not rely on this value for anything but (periodic) metals
  | Electronic free energy        :      -36663.62781518 Ha     -997668.07364381 eV

  Derived energy quantities:
  | Kinetic energy                :       38835.22640618 Ha     1056760.27788304 eV
  | Electrostatic energy          :      -74617.05039946 Ha    -2030433.24867566 eV
  | Energy correction for multipole
  | error in Hartree potential    :           0.00000000 Ha           0.00000000 eV
  | Sum of eigenvalues per atom                           :      -52057.51433100 eV
  | Total energy (T->0) per atom                          :      -83139.00613698 eV  <-- do not rely on this value for anything but (periodic) metals
  | Electronic free energy per atom                       :      -83139.00613698 eV
  Initialize hartree_potential_storage
  Max. number of atoms included in rho_multipole:           12

  End scf initialization - timings             :  max(cpu_time)    wall_clock(cpu1)
  | Time for scf. initialization               :        4.044 s           4.055 s
  | Boundary condition initialization          :        0.221 s           0.222 s
  | Relaxation initialization                  :        0.011 s           0.011 s
  | Integration                                :        1.201 s           1.204 s
  | Solution of K.-S. eqns.                    :        0.701 s           0.563 s
  | Grid partitioning                          :        0.078 s           0.078 s
  | Preloading free-atom quantities on grid    :        0.288 s           0.289 s
  | Free-atom superposition energy             :        0.027 s           0.027 s
  | Total energy evaluation                    :        0.002 s           0.002 s

  Partial memory accounting:
  | Current value for overall tracked memory usage:
  |   Minimum:       21.173 MB (on task  0)
  |   Maximum:       22.354 MB (on task  1)
  |   Average:       21.763 MB
  | Peak value for overall tracked memory usage:
  |   Minimum:       45.151 MB (on task 23 after allocating wave)
  |   Maximum:       47.579 MB (on task 20 after allocating wave)
  |   Average:       46.460 MB
  | Largest tracked array allocation so far:
  |   Minimum:        8.899 MB (hamiltonian_shell on task 23)
  |   Maximum:        9.863 MB (hamiltonian_shell on task 25)
  |   Average:        9.394 MB
  Note:  These values currently only include a subset of arrays which are explicitly tracked.
  The "true" memory usage will be greater.
------------------------------------------------------------
  Evaluating new KS density using the density matrix
  Evaluating density matrix
  Time summed over all CPUs for getting density from density matrix: real work       52.275 s, elapsed       53.982 s
  Integration grid: deviation in total charge (<rho> - N_e) =   5.684342E-14

  Time for density update prior                :  max(cpu_time)    wall_clock(cpu1)
  | self-consistency iterative process         :        1.456 s           1.460 s

------------------------------------------------------------
          Begin self-consistency iteration #    1

  Date     :  20240503, Time     :  172609.354
------------------------------------------------------------
  Pulay mixing of updated and previous charge densities.
  Renormalizing the density to the exact electron count on the 3D integration grid.
  | Formal number of electrons (from input files) :     296.0000000000
  | Integrated number of electrons on 3D grid     :     295.9987469843
  | Charge integration error                      :      -0.0012530157
  | Normalization factor for density and gradient :       1.0000042332

  Evaluating partitioned Hartree potential by multipole expansion.
  | Original multipole sum: apparent total charge =   0.143915E-12
  | Sum of charges compensated after spline to logarithmic grids =  -0.127595E-04
  | Analytical far-field extrapolation by fixed multipoles:
  | Hartree multipole sum: apparent total charge =   0.144137E-12
  Summing up the Hartree potential.
  Time summed over all CPUs for potential: real work        8.361 s, elapsed        8.761 s
  | RMS charge density error from multipole expansion :   0.174395E-02
  | Average real-space part of the electrostatic potential :      0.06096439 eV

  Integrating Hamiltonian matrix: batch-based integration.
  Time summed over all CPUs for integration: real work       37.087 s, elapsed       38.342 s
  ----------------------------------------------------------------
  Adding Hubbard correction to Hamiltonian
  ----------------------------------------------------------------
  !--Definition for DFT+U occupation matrix is:    'on-site'
  correlated subspace  1      |  U =   0.00 eV
   avg. occ. hubbard projectors:  0.0168
   petukhov mixing factor      :  1.0000
  ----------------------------------------------------------------
   occupation matrix (subspace #           1 , spin            1 )
   0.01306  -0.00000   0.00249   0.00000   0.00000   0.00000   0.00000
  -0.00000   0.04306  -0.00000  -0.00000  -0.00000  -0.00000  -0.00000
   0.00249  -0.00000   0.01177  -0.00000   0.00000  -0.00000   0.00000
   0.00000  -0.00000  -0.00000   0.01498   0.00000   0.00000  -0.00000
   0.00000  -0.00000   0.00000   0.00000   0.01177  -0.00000  -0.00249
   0.00000  -0.00000  -0.00000   0.00000  -0.00000   0.00985  -0.00000
   0.00000  -0.00000   0.00000  -0.00000  -0.00249  -0.00000   0.01306
  ----------------------------------------------------------------
  correlated subspace  2      |  U =   0.00 eV
   avg. occ. hubbard projectors:  0.0168
   petukhov mixing factor      :  1.0000
  ----------------------------------------------------------------
   occupation matrix (subspace #           2 , spin            1 )
   0.01306   0.00000   0.00249  -0.00000  -0.00000   0.00000  -0.00000
   0.00000   0.04306   0.00000  -0.00000   0.00000   0.00000  -0.00000
   0.00249   0.00000   0.01177   0.00000   0.00000  -0.00000   0.00000
  -0.00000  -0.00000   0.00000   0.01498  -0.00000   0.00000   0.00000
  -0.00000   0.00000   0.00000  -0.00000   0.01177  -0.00000  -0.00249
   0.00000   0.00000  -0.00000   0.00000  -0.00000   0.00985  -0.00000
  -0.00000  -0.00000   0.00000   0.00000  -0.00249  -0.00000   0.01306
  ----------------------------------------------------------------
  correlated subspace  3      |  U =   0.00 eV
   avg. occ. hubbard projectors:  0.0168
   petukhov mixing factor      :  1.0000
  ----------------------------------------------------------------
   occupation matrix (subspace #           3 , spin            1 )
   0.01306   0.00000   0.00249  -0.00000   0.00000   0.00000  -0.00000
   0.00000   0.04306  -0.00000  -0.00000  -0.00000   0.00000  -0.00000
   0.00249  -0.00000   0.01177  -0.00000  -0.00000   0.00000  -0.00000
  -0.00000  -0.00000  -0.00000   0.01498  -0.00000  -0.00000  -0.00000
   0.00000  -0.00000  -0.00000  -0.00000   0.01177   0.00000  -0.00249
   0.00000   0.00000   0.00000  -0.00000   0.00000   0.00985  -0.00000
  -0.00000  -0.00000  -0.00000  -0.00000  -0.00249  -0.00000   0.01306
  ----------------------------------------------------------------
  correlated subspace  4      |  U =   0.00 eV
   avg. occ. hubbard projectors:  0.0168
   petukhov mixing factor      :  1.0000
  ----------------------------------------------------------------
   occupation matrix (subspace #           4 , spin            1 )
   0.01306   0.00000   0.00249  -0.00000  -0.00000   0.00000   0.00000
   0.00000   0.04306   0.00000   0.00000  -0.00000  -0.00000  -0.00000
   0.00249   0.00000   0.01177   0.00000  -0.00000   0.00000   0.00000
  -0.00000   0.00000   0.00000   0.01498  -0.00000  -0.00000  -0.00000
  -0.00000  -0.00000  -0.00000  -0.00000   0.01177   0.00000  -0.00249
   0.00000  -0.00000   0.00000  -0.00000   0.00000   0.00985  -0.00000
   0.00000  -0.00000   0.00000  -0.00000  -0.00249  -0.00000   0.01306
  ----------------------------------------------------------------
  correlated subspace  5      |  U =   0.00 eV
   avg. occ. hubbard projectors:  1.8297
   petukhov mixing factor      :  1.0000
  ----------------------------------------------------------------
   occupation matrix (subspace #           5 , spin            1 )
   1.82971   0.00000  -0.00000
   0.00000   1.82971  -0.00000
  -0.00000  -0.00000   1.82971
  ----------------------------------------------------------------
  correlated subspace  6      |  U =   0.00 eV
   avg. occ. hubbard projectors:  1.8297
   petukhov mixing factor      :  1.0000
  ----------------------------------------------------------------
   occupation matrix (subspace #           6 , spin            1 )
   1.82971   0.00000  -0.00000
   0.00000   1.82971   0.00000
  -0.00000   0.00000   1.82971
  ----------------------------------------------------------------
  correlated subspace  7      |  U =   0.00 eV
   avg. occ. hubbard projectors:  1.8297
   petukhov mixing factor      :  1.0000
  ----------------------------------------------------------------
   occupation matrix (subspace #           7 , spin            1 )
   1.82971   0.00000  -0.00000
   0.00000   1.82971  -0.00000
  -0.00000  -0.00000   1.82971
  ----------------------------------------------------------------
  correlated subspace  8      |  U =   0.00 eV
   avg. occ. hubbard projectors:  1.8297
   petukhov mixing factor      :  1.0000
  ----------------------------------------------------------------
   occupation matrix (subspace #           8 , spin            1 )
   1.82971  -0.00000  -0.00000
[...]
    143       2.00000          -0.409933          -11.15486
    144       2.00000          -0.409933          -11.15486
    145       2.00000          -0.409933          -11.15486
    146       2.00000          -0.407699          -11.09406
    147       2.00000          -0.407699          -11.09406
    148       2.00000          -0.407699          -11.09406
    149       0.00000          -0.302024           -8.21848
    150       0.00000          -0.302024           -8.21848
    151       0.00000          -0.302024           -8.21848
    152       0.00000          -0.302024           -8.21848
    153       0.00000          -0.302024           -8.21848
    154       0.00000          -0.302024           -8.21848
    155       0.00000          -0.300266           -8.17065
    156       0.00000          -0.300266           -8.17065
    157       0.00000          -0.300266           -8.17065
    158       0.00000          -0.296878           -8.07847
    159       0.00000          -0.296878           -8.07847
    160       0.00000          -0.296878           -8.07847
    161       0.00000          -0.291365           -7.92843
    162       0.00000          -0.290564           -7.90665
    163       0.00000          -0.290564           -7.90665
    164       0.00000          -0.290564           -7.90665
    165       0.00000          -0.279950           -7.61783
    166       0.00000          -0.279950           -7.61783
    167       0.00000          -0.279950           -7.61783
    168       0.00000          -0.279950           -7.61783
    169       0.00000          -0.279950           -7.61783
    170       0.00000          -0.279950           -7.61783
    171       0.00000          -0.271557           -7.38943
    172       0.00000          -0.271557           -7.38943
    173       0.00000          -0.271557           -7.38943
    174       0.00000          -0.264652           -7.20154
    175       0.00000          -0.264652           -7.20154
    176       0.00000          -0.264652           -7.20154
    177       0.00000          -0.152463           -4.14872
    178       0.00000          -0.152463           -4.14872
    179       0.00000          -0.152463           -4.14872
    180       0.00000          -0.141978           -3.86341
    181       0.00000          -0.141978           -3.86341
    182       0.00000          -0.085381           -2.32334
    183       0.00000          -0.072027           -1.95995
    184       0.00000          -0.072027           -1.95995
    185       0.00000          -0.072027           -1.95995
    186       0.00000          -0.058651           -1.59598
    187       0.00000          -0.058651           -1.59598
    188       0.00000          -0.058651           -1.59598
    189       0.00000           0.023051            0.62725
    190       0.00000           0.023051            0.62725
    191       0.00000           0.023051            0.62725
    192       0.00000           0.023051            0.62725
    193       0.00000           0.023051            0.62725
    194       0.00000           0.023051            0.62725
    195       0.00000           0.090835            2.47174
    196       0.00000           0.090835            2.47174
    197       0.00000           0.090835            2.47174
    198       0.00000           0.235393            6.40538
    199       0.00000           0.235393            6.40538
    200       0.00000           0.235393            6.40538
    201       0.00000           0.237485            6.46230
    202       0.00000           0.237485            6.46230
    203       0.00000           0.237485            6.46230
    204       0.00000           0.366117            9.96256
    205       0.00000           0.366117            9.96256
    206       0.00000           0.366117            9.96256
    207       0.00000           0.375646           10.22186
    208       0.00000           0.375646           10.22186

  What follows are estimated values for band gap, HOMO, LUMO, etc.
  | They are estimated on a discrete k-point grid and not necessarily exact.
  | For converged numbers, create a DOS and/or band structure plot on a denser k-grid.

  Highest occupied state (VBM) at    -10.50186914 eV (relative to internal zero)
  | Occupation number:      2.00000000
  | K-point:      27 at    0.000000    0.500000    0.500000 (in units of recip. lattice)

  Lowest unoccupied state (CBM) at    -8.35824980 eV (relative to internal zero)
  | Occupation number:      0.00000000
  | K-point:     205 at    0.500000    0.500000    0.500000 (in units of recip. lattice)

  ESTIMATED overall HOMO-LUMO gap:      2.14361934 eV between HOMO at k-point 27 and LUMO at k-point 205
  | This appears to be an indirect band gap.
  | Smallest direct gap :      2.25869505 eV for k_point 21 at    0.000000    0.375000    0.500000 (in units of recip. lattice)
  The gap value is above 0.2 eV. Unless you are using a very sparse k-point grid,
  this system is most likely an insulator or a semiconductor.
  | Chemical Potential                          :    -9.63708427 eV

  Self-consistency cycle converged.


------------------------------------------------------------
  End self-consistency iteration #    23       :  max(cpu_time)    wall_clock(cpu1)
  | Time for this iteration                    :       16.364 s          16.402 s
  | Charge density & force component update    :       13.668 s          13.699 s
  | Density mixing                             :        0.008 s           0.002 s
  | Hartree multipole update                   :        0.001 s           0.002 s
  | Hartree multipole summation                :        0.790 s           0.792 s
  | Hartree pot. SCF incomplete forces         :        0.500 s           0.501 s
  | Integration                                :        0.972 s           0.974 s
  | Solution of K.-S. eqns.                    :        0.421 s           0.423 s
  | Total energy evaluation                    :        0.001 s           0.002 s

  Partial memory accounting:
  | Current value for overall tracked memory usage:
  |   Minimum:       21.174 MB (on task  0)
  |   Maximum:       22.354 MB (on task  1)
  |   Average:       21.764 MB
  | Peak value for overall tracked memory usage:
  |   Minimum:       48.200 MB (on task 23 after allocating d_wave)
  |   Maximum:       51.097 MB (on task 20 after allocating d_wave)
  |   Average:       49.781 MB
  | Largest tracked array allocation so far:
  |   Minimum:        8.899 MB (hamiltonian_shell on task 23)
  |   Maximum:        9.863 MB (hamiltonian_shell on task 25)
  |   Average:        9.394 MB
  Note:  These values currently only include a subset of arrays which are explicitly tracked.
  The "true" memory usage will be greater.
------------------------------------------------------------
  Removing unitary transformations (pure translations, rotations) from forces on atoms.
  Atomic forces before filtering:
  | Net force on center of mass :  -0.365769E-05 -0.491014E-05 -0.742989E-06 eV/A
  Atomic forces after filtering:
  | Net force on center of mass :   0.110592E-20  0.170141E-20  0.850707E-22 eV/A

  Energy and forces in a compact form:
  | Total energy uncorrected      :         -0.999246231616934E+06 eV
  | Total energy corrected        :         -0.999246231616934E+06 eV  <-- do not rely on this value for anything but (periodic) metals
  | Electronic free energy        :         -0.999246231616934E+06 eV
  Total atomic forces (unitary forces cleaned) [eV/Ang]:
  |    1          0.908570869437368E-06          0.279739180130206E-07          0.188045687125040E-05
  |    2          0.114220659330923E-06         -0.181739051645664E-05         -0.240182503576965E-05
  |    3         -0.170756284157700E-05          0.710432501377803E-06         -0.107119811323107E-05
  |    4         -0.175542066293298E-05         -0.219271419629146E-05          0.109723706280185E-05
  |    5          0.310485464126200E-06          0.395305617020513E-06          0.565922221388259E-07
  |    6          0.310550985180253E-06          0.423154976350208E-06          0.668235465777463E-07
  |    7          0.299116588809430E-06          0.395921318895794E-06          0.670040429209595E-07
  |    8          0.299215280906283E-06          0.421890322144493E-06          0.566841160871283E-07
  |    9          0.299275778424828E-06          0.422182547748609E-06          0.673093565018025E-07
  |   10          0.299417843101765E-06          0.395253161219789E-06          0.572453562046309E-07
  |   11          0.311632438922454E-06          0.423165172085265E-06          0.559709181539183E-07
  |   12          0.310497596270479E-06          0.394825177892609E-06          0.676996563634528E-07

  ------------------------------------ 
  Start decomposition of the XC Energy 
  ------------------------------------ 
  X and C from original XC functional choice 
  Hartree-Fock Energy :          0.000000000 Ha              0.000000000 eV
  X Energy            :       -924.181755885 Ha         -25148.265107280 eV
  C Energy            :        -17.127822178 Ha           -466.071754942 eV
  Total XC Energy     :       -941.309578064 Ha         -25614.336862222 eV
  ------------------------------------ 
  LDA X and C from self-consistent density 
  X Energy LDA        :       -855.387082822 Ha         -23276.266806991 eV
  C Energy LDA        :        -27.123597144 Ha           -738.070630896 eV
  ------------------------------------ 
  End decomposition of the XC Energy 
  ------------------------------------ 

------------------------------------------------------------
  Relaxation / MD: End force evaluation.       :  max(cpu_time)    wall_clock(cpu1)
  | Time for this force evaluation             :       93.390 s          94.382 s

------------------------------------------------------------
  Geometry optimization: Attempting to predict improved coordinates.

  Removing unitary transformations (pure translations, rotations) from forces on atoms.
  Atomic forces before filtering:
  | Net force on center of mass :   0.110592E-20  0.170141E-20  0.850707E-22 eV/A
  Atomic forces after filtering:
  | Net force on center of mass :   0.680565E-21  0.153127E-20 -0.233944E-21 eV/A
  Net remaining forces (excluding translations, rotations) in present geometry:
  || Forces on atoms   || =   0.240183E-05 eV/A.
  Maximum force component is  0.240183E-05 eV/A.
  Present geometry is converged.

------------------------------------------------------------
  Final atomic structure:
                         x [A]             y [A]             z [A]
  lattice_vector         5.41780000        0.00000000        0.00000000
  lattice_vector         0.00000000        5.41780000        0.00000000
  lattice_vector         0.00000000        0.00000000        5.41780000

            atom         0.00000000        0.00000000        0.00000000  Ce
            atom         0.00000000        2.70890000        2.70890000  Ce
            atom         2.70890000        0.00000000        2.70890000  Ce
            atom         2.70890000        2.70890000        0.00000000  Ce
            atom         1.35445000        1.35445000        4.06335000  O
            atom         1.35445000        4.06335000        1.35445000  O
            atom         4.06335000        1.35445000        1.35445000  O
            atom         4.06335000        4.06335000        4.06335000  O
            atom         4.06335000        4.06335000        1.35445000  O
            atom         4.06335000        1.35445000        4.06335000  O
            atom         1.35445000        4.06335000        4.06335000  O
            atom         1.35445000        1.35445000        1.35445000  O

  Fractional coordinates:
                         L1                L2                L3
       atom_frac         0.00000000        0.00000000        0.00000000  Ce
       atom_frac         0.00000000        0.50000000        0.50000000  Ce
       atom_frac         0.50000000        0.00000000        0.50000000  Ce
       atom_frac         0.50000000        0.50000000        0.00000000  Ce
       atom_frac         0.25000000        0.25000000        0.75000000  O
       atom_frac         0.25000000        0.75000000        0.25000000  O
       atom_frac         0.75000000        0.25000000        0.25000000  O
       atom_frac         0.75000000        0.75000000        0.75000000  O
       atom_frac         0.75000000        0.75000000        0.25000000  O
       atom_frac         0.75000000        0.25000000        0.75000000  O
       atom_frac         0.25000000        0.75000000        0.75000000  O
       atom_frac         0.25000000        0.25000000        0.25000000  O
------------------------------------------------------------

------------------------------------------------------------------------------
  Final output of selected total energy values:

  The following output summarizes some interesting total energy values
  at the end of a run (AFTER all relaxation, molecular dynamics, etc.).

  | Total energy of the DFT / Hartree-Fock s.c.f. calculation      :        -999246.231616934 eV
  | Final zero-broadening corrected energy (caution - metals only) :        -999246.231616934 eV
  | For reference only, the value of 1 Hartree used in FHI-aims is :             27.211384500 eV
  | For reference only, the overall average (free atom contribution
  | + realspace contribution) of the electrostatic potential after
  | s.c.f. convergence is                                          :            -22.328180708 eV

  Before relying on these values, please be sure to understand exactly which
  total energy value is referred to by a given number. Different objects may
  all carry the same name 'total energy'. Definitions:

  Total energy of the DFT / Hartree-Fock s.c.f. calculation:
  | Note that this energy does not include ANY quantities calculated after the
  | s.c.f. cycle, in particular not ANY RPA, MP2, etc. many-body perturbation terms.

  Final zero-broadening corrected energy:
  | For metallic systems only, a broadening of the occupation numbers at the Fermi
  | level can be extrapolated back to zero broadening by an electron-gas inspired
  | formula. For all systems that are not real metals, this value can be
  | meaningless and should be avoided.

------------------------------------------------------------------------------
  Methods described in the following list of references were used in this FHI-aims run.
  If you publish the results, please make sure to cite these reference if they apply.
  FHI-aims is an academic code, and for our developers (often, Ph.D. students
  and postdocs), scientific credit in the community is essential.
  Thank you for helping us!

  For any use of FHI-aims, please cite:

    Volker Blum, Ralf Gehrke, Felix Hanke, Paula Havu, Ville Havu,
    Xinguo Ren, Karsten Reuter, and Matthias Scheffler
    'Ab initio molecular simulations with numeric atom-centered orbitals'
    Computer Physics Communications 180, 2175-2196 (2009)
    http://dx.doi.org/10.1016/j.cpc.2009.06.022


  The provided symmetry information was generated with SPGlib:

    Atsushi Togo, Yusuke Seto, Dimitar Pashov
    SPGlib 1.7.3 obtained from http://spglib.sourceforge.net
    Copyright (C) 2008 Atsushi Togo


 DFT+U infrastructure was used in your run
 please cite:

 Matthias Kick, Karsten Reuter and Harald Oberhofer,
 Intricacies Of DFT+U, not only in a Numeric Atom Centered Orbital Framework

 Journal of Chemical Theory and Computation
 https://


  The ELSI infrastructure was used in your run to solve the Kohn-Sham electronic structure.
  Please check out http://elsi-interchange.org to learn more.
  If scalability is important for your project, please acknowledge ELSI by citing:

    V. W-z. Yu, F. Corsetti, A. Garcia, W. P. Huhn, M. Jacquelin, W. Jia,
    B. Lange, L. Lin, J. Lu, W. Mi, A. Seifitokaldani, A. Vazquez-Mayagoitia,
    C. Yang, H. Yang, and V. Blum
    'ELSI: A unified software interface for Kohn-Sham electronic structure solvers'
    Computer Physics Communications 222, 267-285 (2018).
    http://dx.doi.org/10.1016/j.cpc.2017.09.007


  For the real-space grid partitioning and parallelization used in this calculation, please cite:

    Ville Havu, Volker Blum, Paula Havu, and Matthias Scheffler,
    'Efficient O(N) integration for all-electron electronic structure calculation'
    'using numerically tabulated basis functions'
    Journal of Computational Physics 228, 8367-8379 (2009).
    http://dx.doi.org/10.1016/j.jcp.2009.08.008

  Of course, there are many other important community references, e.g., those cited in the
  above references. Our list is limited to references that describe implementations in the
  FHI-aims code. The reason is purely practical (length of this list) - please credit others as well.

 * A warning was issued further up regarding the accuracy of onsite integrals.
   An integral with a negative eigenvalue was among the flagged integrals.
   In most standard situations, this warning is probably harmless.
   If needed, this can be verified by adjusting the radial_multiplier flag.

------------------------------------------------------------
          Leaving FHI-aims.
          Date     :  20240503, Time     :  172738.258

          Computational steps:
          | Number of self-consistency cycles          :           23
          | Number of SCF (re)initializations          :            1
          | Number of relaxation steps                 :            0

          Detailed time accounting                     :  max(cpu_time)    wall_clock(cpu1)
          | Total time                                 :       94.792 s          95.288 s
          | Preparation time                           :        0.523 s           0.524 s
          | Boundary condition initalization           :        0.221 s           0.222 s
          | Grid partitioning                          :        0.078 s           0.078 s
          | Preloading free-atom quantities on grid    :        0.288 s           0.289 s
          | Free-atom superposition energy             :        0.027 s           0.027 s
          | Total time for integrations                :       23.883 s          23.940 s
          | Total time for solution of K.-S. equations :       10.285 s          10.174 s
          | Total time for EV reorthonormalization     :        0.000 s           0.000 s
          | Total time for density & force components  :       46.808 s          46.919 s
          | Total time for mixing & preconditioning    :        3.934 s           3.805 s
          | Total time for Hartree multipole update    :        0.034 s           0.036 s
          | Total time for Hartree multipole sum       :        6.338 s           6.352 s
          | Total time for total energy evaluation     :        0.040 s           0.037 s
          | Total time NSC force correction            :        0.500 s           0.501 s
          | Total time for scaled ZORA corrections     :        0.000 s           0.000 s

          Partial memory accounting:
          | Residual value for overall tracked memory usage across tasks:     0.000000 MB (should be 0.000000 MB)
          | Peak values for overall tracked memory usage:
          |   Minimum:       48.200 MB (on task 23 after allocating d_wave)
          |   Maximum:       51.097 MB (on task 20 after allocating d_wave)
          |   Average:       49.781 MB
          | Largest tracked array allocation:
          |   Minimum:        8.899 MB (hamiltonian_shell on task 23)
          |   Maximum:        9.863 MB (hamiltonian_shell on task 25)
          |   Average:        9.394 MB
          Note:  These values currently only include a subset of arrays which are explicitly tracked.
          The "true" memory usage will be greater.

          Have a nice day.
------------------------------------------------------------
