------------------------------------------------------------
          Invoking FHI-aims ...

          When using FHI-aims, please cite the following reference:

            Volker Blum, Ralf Gehrke, Felix Hanke, Paula Havu,
            Ville Havu, Xinguo Ren, Karsten Reuter, and Matthias Scheffler,
            'Ab Initio Molecular Simulations with Numeric Atom-Centered Orbitals',
            Computer Physics Communications 180, 2175-2196 (2009)

          In addition, many other developments in FHI-aims are likely important for
          your particular application. A partial list of references is given at the end of
          this file. Thank you for giving credit to the authors of these developments.

          For any questions about FHI-aims, please visit our slack channel at

            https://fhi-aims.slack.com

          and our main development and support site at

            https://aims-git.rz-berlin.mpg.de .

          The latter site, in particular, has a wiki to collect information, as well
          as an issue tracker to log discussions, suggest improvements, and report issues
          or bugs. https://aims-git.rz-berlin.mpg.de is also the main development site
          of the project and all new and updated code versions can be obtained there.
          Please send an email to aims-coordinators@fhi-berlin.mpg.de and we will add
          you to these sites. They are for you and everyone is welcome there.

------------------------------------------------------------



  Date     :  20250315, Time     :  160441.430
  Time zero on CPU 1             :   0.146707000000000E+00  s.
  Internal wall clock time zero  :           511286681.430  s.

  FHI-aims created a unique identifier for this run for later identification
  aims_uuid : 58083CED-DC47-4FE1-A3CB-4EBF2F0FBBC0

  Build configuration of the current instance of FHI-aims
  -------------------------------------------------------
  FHI-aims version      : 210309
  Commit number         : 8cf946fba
  CMake host system     : Linux-3.10.0-1127.13.1.el7.x86_64
  CMake version         : 3.17.3
  Fortran compiler      : /apps/compilers/intel/2018.2/compilers_and_libraries_2018/linux/mpi/intel64/bin/mpiifort (Intel) version 18.0.2.20180210
  Fortran compiler flags: -O3 -fp-model precise
  C compiler            : /apps/compilers/intel/2018.2/compilers_and_libraries_2018/linux/mpi/intel64/bin/mpicc (Intel) version 18.0.2.20180210
  C compiler flags      : -O3 -ip -fp-model precise -std=gnu99
  Using MPI
  Using ScaLAPACK
  Using LibXC
  Using i-PI
  Using RLSY
  Linking against: /apps/compilers/intel/2018.2/compilers_and_libraries_2018/linux/mkl/lib/intel64/libmkl_scalapack_lp64.so
                   /apps/compilers/intel/2018.2/compilers_and_libraries_2018/linux/mkl/lib/intel64/libmkl_blacs_intelmpi_lp64.so
                   /apps/compilers/intel/2018.2/compilers_and_libraries_2018/linux/mkl/lib/intel64/libmkl_intel_lp64.so
                   /apps/compilers/intel/2018.2/compilers_and_libraries_2018/linux/mkl/lib/intel64/libmkl_intel_thread.so
                   /apps/compilers/intel/2018.2/compilers_and_libraries_2018/linux/mkl/lib/intel64/libmkl_core.so
                   /usr/lib64/libpthread.so
                   /home/scw1057/software/libxc/libxc-4.3.4/lib/libxcf03.so
                   /home/scw1057/software/libxc/libxc-4.3.4/lib/libxcf90.so
                   /home/scw1057/software/libxc/libxc-4.3.4/lib/libxc.so

  Using       40 parallel tasks.
  Task        0 on host ccs0136 reporting.
  Task        1 on host ccs0136 reporting.
  Task        2 on host ccs0136 reporting.
  Task        3 on host ccs0136 reporting.
  Task        4 on host ccs0136 reporting.
  Task        5 on host ccs0136 reporting.
  Task        6 on host ccs0136 reporting.
  Task        7 on host ccs0136 reporting.
  Task        8 on host ccs0136 reporting.
  Task        9 on host ccs0136 reporting.
  Task       10 on host ccs0136 reporting.
  Task       11 on host ccs0136 reporting.
  Task       12 on host ccs0136 reporting.
  Task       13 on host ccs0136 reporting.
  Task       14 on host ccs0136 reporting.
  Task       15 on host ccs0136 reporting.
  Task       16 on host ccs0136 reporting.
  Task       17 on host ccs0136 reporting.
  Task       18 on host ccs0136 reporting.
  Task       19 on host ccs0136 reporting.
  Task       20 on host ccs0136 reporting.
  Task       21 on host ccs0136 reporting.
  Task       22 on host ccs0136 reporting.
  Task       23 on host ccs0136 reporting.
  Task       24 on host ccs0136 reporting.
  Task       25 on host ccs0136 reporting.
  Task       26 on host ccs0136 reporting.
  Task       27 on host ccs0136 reporting.
  Task       28 on host ccs0136 reporting.
  Task       29 on host ccs0136 reporting.
  Task       30 on host ccs0136 reporting.
  Task       31 on host ccs0136 reporting.
  Task       32 on host ccs0136 reporting.
  Task       33 on host ccs0136 reporting.
  Task       34 on host ccs0136 reporting.
  Task       35 on host ccs0136 reporting.
  Task       36 on host ccs0136 reporting.
  Task       37 on host ccs0136 reporting.
  Task       38 on host ccs0136 reporting.
  Task       39 on host ccs0136 reporting.

  Performing system and environment tests:
  *** Environment variable OMP_NUM_THREADS is not set
  *** For performance reasons you might want to set it to 1
  | Checking for ScaLAPACK...
  | Testing pdtran()...
  | All pdtran() tests passed.

  Obtaining array dimensions for all initial allocations:
  
  -----------------------------------------------------------------------
  Parsing control.in (first pass over file, find array dimensions only).
  The contents of control.in will be repeated verbatim below
  unless switched off by setting 'verbatim_writeout .false.' .
  in the first line of control.in .
  -----------------------------------------------------------------------
  
  #===============================================================================
  # FHI-aims file: ./control.in
  # Created using the Atomic Simulation Environment (ASE)
  # Sat Mar 15 16:04:39 2025
  #===============================================================================
  compute_forces                     .true.
  override_warning_libxc             true
  xc                                 libxc MGGA_X_MBEEF+GGA_C_PBE_SOL
  k_grid                             15 15 3
  relativistic                       atomic_zora scalar
  occupation_type                    gaussian 0.1
  plus_u_petukhov_mixing             1
  plus_u_matrix_control              True
  sc_accuracy_etot                   1e-06
  sc_accuracy_eev                    0.001
  sc_accuracy_rho                    1e-06
  sc_accuracy_forces                 0.0001
  #===============================================================================
  
  ################################################################################
  #
  #  FHI-aims code project
  #  VB, Fritz-Haber Institut, 2009
  #
  #  Suggested "light" defaults for Li atom (to be pasted into control.in file)
  #  Be sure to double-check any results obtained with these settings for post-processing,
  #  e.g., with the "tight" defaults and larger basis sets.
  #
  ################################################################################
    species        Li
  #     global species definitions
      nucleus             3
      mass                6.941
  #
      l_hartree           4
  #
      cut_pot             3.5  1.5  1.0
      basis_dep_cutoff    1e-4
  #
      radial_base         29 5.0
      radial_multiplier   1
      angular_grids       specified
        division   0.4484  110
        division   0.5659  194
        division   0.6315  302
  #      division   0.6662  434
  #      division   0.8186  590
  #      division   0.9037  770
  #      division   6.2760  974
  #      outer_grid   974
        outer_grid   302
  ################################################################################
  #
  #  Definition of "minimal" basis
  #
  ################################################################################
  #     valence basis states
      valence      2  s   1.
  #     ion occupancy
      ion_occ      1  s   2.
  ################################################################################
  #
  #  Suggested additional basis functions. For production calculations,
  #  uncomment them one after another (the most important basis functions are
  #  listed first).
  #
  #  Constructed for dimers: 1.80 A, 2.25 A, 2.75 A, 3.50 A, 4.50 A
  #
  ################################################################################
  #  "First tier" - improvements: -189.23 meV to -6.35 meV
       hydro 2 p 1.6
       hydro 2 s 2
       hydro 3 d 2.6
  #  "Second tier" - improvements: -4.69 meV to -0.41 meV
  #     hydro 3 p 4.6
  #     hydro 2 p 1.8
  #     hydro 3 s 6.2
  #     hydro 4 d 4.7
  #     hydro 4 f 4.1
  #  "Third tier" - improvements: -0.20 meV to -0.15 meV
  #     hydro 4 d 0.95
  #     hydro 3 p 6.2
  #     hydro 3 s 1.7
  #  Further functions, listed for completeness
  #     VB: The following functions are only listed for completeness; test very
  #         carefully before any kind of production use. From the point of view
  #         of the basis construction, their main role is to fill up space,
  #         and they are solely determined by the location of the cutoff potential.
  #     hydro 3 p 0.1  # -0.15 meV
  #     hydro 4 d 5    # -0.12 meV
  #     hydro 4 f 0.1  # -0.14 meV
  #     hydro 5 g 0.1  # -0.06 meV
  
  
  ################################################################################
  #
  #  FHI-aims code project
  #  VB, Fritz-Haber Institut, 2009
  #
  #  Suggested "light" defaults for Co atom (to be pasted into control.in file)
  #  Be sure to double-check any results obtained with these settings for post-processing,
  #  e.g., with the "tight" defaults and larger basis sets.
  #
  #  2020/09/15 Added 4 p ionic function from tier 2 to default to improve description of
  #             bulk Co in "light".
  #
  ################################################################################
    species        Co
  #     global species definitions
      nucleus      27
      mass         58.933195
  #
      l_hartree    4
  #
      cut_pot      3.5  1.5  1.0
      basis_dep_cutoff    1e-4
  #
      radial_base        52 5.0
      radial_multiplier  1
      angular_grids       specified
        division   0.4668   50
        division   0.8401  110
        division   1.1973  194
        division   1.4237  302
  #      division   1.5981  434
  #      division   1.7961  590
  #      division   1.9829  770
  #      division   2.0231  974
  #      division   2.4367 1202
  #      outer_grid   974
        outer_grid   302
  ################################################################################
  #
  #  Definition of "minimal" basis
  #
  ################################################################################
  #     valence basis states
      valence      4  s   2.
      valence      3  p   6.
      valence      3  d   7.
  #     ion occupancy
      ion_occ      4  s   1.
      ion_occ      3  p   6.
      ion_occ      3  d   6.
  ################################################################################
  #
  #  Suggested additional basis functions. For production calculations,
  #  uncomment them one after another (the most important basis functions are
  #  listed first).
  #
  #  Constructed for dimers: 1.8, 2.0, 2.5, 3.5 Ang
  #
  ################################################################################
  #  "First tier" (improvements: -167.79 meV ...  -15.31 meV)
       hydro 3 p 5.8
       hydro 4 f 8.2
       hydro 3 d 5.4
  #     hydro 5 g 12
       ionic 4 s auto
  #  "Second tier" (improvements: -8.83 meV ... -0.89 meV)
       ionic 4 p auto
  #     hydro 6 h 16.4
  #     hydro 4 d 5.6
  #     hydro 4 f 17.2
  #     hydro 1 s 0.75
  #  "Third tier" (improvements: -1.03 meV ... -0.06 meV)
  #     hydro 4 d 7.8
  #     hydro 2 p 5.8
  #     hydro 4 f 8
  #     hydro 5 g 11.6
  #     hydro 4 s 4.3
  #     hydro 6 h 14.4
  #  "Fourth tier" (minor improvements)
  #     hydro 5 f 16
  #     hydro 5 d 8
  #     hydro 4 p 10
  #     hydro 5 s 7.4
  
  plus_u 3 d 0
  ################################################################################
  #
  #  FHI-aims code project
  #  VB, Fritz-Haber Institut, 2009
  #
  #  Suggested "light" defaults for O atom (to be pasted into control.in file)
  #  Be sure to double-check any results obtained with these settings for post-processing,
  #  e.g., with the "tight" defaults and larger basis sets.
  #
  ################################################################################
    species        O
  #     global species definitions
      nucleus             8
      mass                15.9994
  #
      l_hartree           4
  #
      cut_pot             3.5  1.5  1.0
      basis_dep_cutoff    1e-4
  #
      radial_base         36 5.0
      radial_multiplier   1
       angular_grids specified
        division   0.2659   50
        division   0.4451  110
        division   0.6052  194
        division   0.7543  302
  #      division   0.8014  434
  #      division   0.8507  590
  #      division   0.8762  770
  #      division   0.9023  974
  #      division   1.2339 1202
  #      outer_grid 974
        outer_grid 302
  ################################################################################
  #
  #  Definition of "minimal" basis
  #
  ################################################################################
  #     valence basis states
      valence      2  s   2.
      valence      2  p   4.
  #     ion occupancy
      ion_occ      2  s   1.
      ion_occ      2  p   3.
  ################################################################################
  #
  #  Suggested additional basis functions. For production calculations,
  #  uncomment them one after another (the most important basis functions are
  #  listed first).
  #
  #  Constructed for dimers: 1.0 A, 1.208 A, 1.5 A, 2.0 A, 3.0 A
  #
  ################################################################################
  #  "First tier" - improvements: -699.05 meV to -159.38 meV
       hydro 2 p 1.8
       hydro 3 d 7.6
       hydro 3 s 6.4
  #  "Second tier" - improvements: -49.91 meV to -5.39 meV
  #     hydro 4 f 11.6
  #     hydro 3 p 6.2
  #     hydro 3 d 5.6
  #     hydro 5 g 17.6
  #     hydro 1 s 0.75
  #  "Third tier" - improvements: -2.83 meV to -0.50 meV
  #     ionic 2 p auto
  #     hydro 4 f 10.8
  #     hydro 4 d 4.7
  #     hydro 2 s 6.8
  #  "Fourth tier" - improvements: -0.40 meV to -0.12 meV
  #     hydro 3 p 5
  #     hydro 3 s 3.3
  #     hydro 5 g 15.6
  #     hydro 4 f 17.6
  #     hydro 4 d 14
  # Further basis functions - -0.08 meV and below
  #     hydro 3 s 2.1
  #     hydro 4 d 11.6
  #     hydro 3 p 16
  #     hydro 2 s 17.2
  plus_u 2 p 0
  
  -----------------------------------------------------------------------
  Completed first pass over input file control.in .
  -----------------------------------------------------------------------
  
  
  -----------------------------------------------------------------------
  Parsing geometry.in (first pass over file, find array dimensions only).
  The contents of geometry.in will be repeated verbatim below
  unless switched off by setting 'verbatim_writeout .false.' .
  in the first line of geometry.in .
  -----------------------------------------------------------------------
  
  #=======================================================
  # FHI-aims file: ./geometry.in
  # Created using the Atomic Simulation Environment (ASE)
  # Sat Mar 15 16:04:39 2025
  #=======================================================
  lattice_vector 2.8146000000000000 0.0000000000000000 0.0000000000000000
  lattice_vector -1.4072999999999993 2.4375151014916812 0.0000000000000000
  lattice_vector 0.0000000000000000 0.0000000000000000 14.0536999999999992
  atom_frac -0.0000000080040691 -0.0000000001603486 -0.0000000000081218 Li
  atom_frac 0.6666666587141270 0.3333333330749917 0.3333333332823351 Li
  atom_frac 0.3333333244140810 0.6666666665049802 0.6666666671179430 Li
  atom_frac 0.0000000229009375 0.0000000004626539 0.5000000133087136 Co
  atom_frac 0.6666666693982303 0.3333333311105226 0.8333333538059031 Co
  atom_frac 0.3333333560698075 0.6666666709797844 0.1666666316734730 Co
  atom_frac -0.0016582879781200 -0.0033165507423241 0.7607684714841149 O
  atom_frac 0.0016582764835554 0.0033165506626161 0.2392315264394040 O
  atom_frac 0.6650083883197470 0.3300167802434214 0.0941017952488086 O
  atom_frac 0.6683249350811764 0.3366498842986493 0.5725648685032865 O
  atom_frac 0.3316750613408497 0.6633501138199576 0.4274351368621787 O
  atom_frac 0.3349916032596771 0.6699832197450958 0.9058982022819614 O
  
  -----------------------------------------------------------------------
  Completed first pass over input file geometry.in .
  -----------------------------------------------------------------------
  

  Basic array size parameters:
  | Number of species                 :        3
  | Number of atoms                   :       12
  | Number of lattice vectors         :        3
  | Max. basis fn. angular momentum   :        3
  | Max. atomic/ionic basis occupied n:        4
  | Max. number of basis fn. types    :        3
  | Max. radial fns per species/type  :        7
  | Max. logarithmic grid size        :     1400
  | Max. radial integration grid size :       52
  | Max. angular integration grid size:      302
  | Max. angular grid division number :        8
  | Radial grid for Hartree potential :     1400
  | Number of spin channels           :        1
  | Max. number of (n,l) shells per species with '+U' treatment:        1

------------------------------------------------------------
          Reading file control.in.
------------------------------------------------------------
  Forces will be computed.
  XC: Using LibXC. Please refer to LibXC output for further details.
  Using libxc - Initializing
  Libxc version: 4.3.4


  ** PLEASE ** be careful using LibXC. Whilst most of the LDA, GGA and MGGA functionals,
  and hybrid variations therein, should be stable (though we always recommend testing!),
  there are several fancy functionals with e.g. range-separation, like HSE03/HSE06/LC-PBEh,
  and also MGGA functionals that depend on the laplacian of the density, like BR89,
  that are not fully implemented due to the infrastrucutre for these functionals being incomplete or non-generic.
  If you want to use these functionals please contact the development team and we will work on them with you!

  You have selected libxc functional MGGA_X_MBEEF (249)
    - Description: mBEEF exchange
    - Type: MGGA(Exchange)
    - Reference to Literature:
      [1] J. Wellendorff, K. T. Lundgaard, K. W. Jacobsen, and T. Bligaard, J. Chem. Phys. 140, 144107 (2014)

  You have selected libxc functional GGA_C_PBE_SOL (133)
    - Description: Perdew, Burke & Ernzerhof SOL
    - Type: GGA(Correlation)
    - Reference to Literature:
      [1] J. P. Perdew, A. Ruzsinszky, G. I. Csonka, O. A. Vydrov, G. E. Scuseria, L. A. Constantin, X. Zhou, and K. Burke, Phys.

  Switching on meta-ggas
  Found k-point grid:        15        15         3
  Scalar relativistic treatment of kinetic energy: on-site free-atom approximation to ZORA.
  Occupation type: Gaussian broadening, width =   0.100000E+00 eV.
  Fixing petukhov mixing factor to   1.000000000000
  Convergence accuracy of total energy:  0.1000E-05
  Convergence accuracy of sum of eigenvalues:  0.1000E-02
  Convergence accuracy of self-consistent charge density:  0.1000E-05
  Convergence accuracy of forces:  0.1000E-03
 
  Reading configuration options for species Li                  .
  | Found nuclear charge :   3.0000
  | Found atomic mass :    6.94100000000000      amu
  | Found l_max for Hartree potential  :   4
  | Found cutoff potl. onset [A], width [A], scale factor :    3.50000    1.50000    1.00000
  | Threshold for basis-dependent cutoff potential is   0.100000E-03
  | Found data for basic radial integration grid :    29 points, outermost radius =    5.000 A
  | Found multiplier for basic radial grid :   1
  | Found angular grid specification: user-specified.
  | Specified grid contains     4 separate shells.
  | Check grid settings after all constraints further below.
  | Found free-atom valence shell :  2 s   1.000
  | Found free-ion valence shell :  1 s   2.000
  | Found hydrogenic basis function :  2 p   1.600
  | Found hydrogenic basis function :  2 s   2.000
  | Found hydrogenic basis function :  3 d   2.600
  Species Li                  : Missing cutoff potential type.
  Defaulting to exp(1/x)/(1-x)^2 type cutoff potential.
  Species Li: No 'logarithmic' tag. Using default grid for free atom:
  | Default logarithmic grid data [bohr] : 0.1000E-03 0.1000E+03 0.1012E+01
  Species Li: On-site basis accuracy parameter (for Gram-Schmidt orthonormalisation) not specified.
  Using default value basis_acc =  0.1000000E-03.
  Species Li                  : Using default innermost maximum threshold i_radial=  2 for radial functions.
  Species Li                  : Default cutoff onset for free atom density etc. : 0.35000000E+01 AA.
  Species Li                  : Basic radial grid will be enhanced according to radial_multiplier =   1, to contain    29 grid points.
 
  Reading configuration options for species Co                  .
  | Found nuclear charge :  27.0000
  | Found atomic mass :    58.9331950000000      amu
  | Found l_max for Hartree potential  :   4
  | Found cutoff potl. onset [A], width [A], scale factor :    3.50000    1.50000    1.00000
  | Threshold for basis-dependent cutoff potential is   0.100000E-03
  | Found data for basic radial integration grid :    52 points, outermost radius =    5.000 A
  | Found multiplier for basic radial grid :   1
  | Found angular grid specification: user-specified.
  | Specified grid contains     5 separate shells.
  | Check grid settings after all constraints further below.
  | Found free-atom valence shell :  4 s   2.000
  | Found free-atom valence shell :  3 p   6.000
  | Found free-atom valence shell :  3 d   7.000
  | Found free-ion valence shell :  4 s   1.000
  | Found free-ion valence shell :  3 p   6.000
  | Found free-ion valence shell :  3 d   6.000
  | Found hydrogenic basis function :  3 p   5.800
  | Found hydrogenic basis function :  4 f   8.200
  | Found hydrogenic basis function :  3 d   5.400
  | Found ionic basis function :  4 s , default cutoff radius.
  | Found ionic basis function :  4 p , default cutoff radius.
  | Found request for '+U' treatment for  3 d shell, U =     0.000000 eV.
  Species Co                  : Missing cutoff potential type.
  Defaulting to exp(1/x)/(1-x)^2 type cutoff potential.
  Species Co: No 'logarithmic' tag. Using default grid for free atom:
  | Default logarithmic grid data [bohr] : 0.1000E-03 0.1000E+03 0.1012E+01
  | Will include ionic basis functions of  2.0-fold positive Co                   ion.
  Species Co: On-site basis accuracy parameter (for Gram-Schmidt orthonormalisation) not specified.
  Using default value basis_acc =  0.1000000E-03.
  Species Co                  : Using default innermost maximum threshold i_radial=  2 for radial functions.
  Species Co                  : Default cutoff onset for free atom density etc. : 0.35000000E+01 AA.
  Species Co                  : Basic radial grid will be enhanced according to radial_multiplier =   1, to contain    52 grid points.
 
  Reading configuration options for species O                   .
  | Found nuclear charge :   8.0000
  | Found atomic mass :    15.9994000000000      amu
  | Found l_max for Hartree potential  :   4
  | Found cutoff potl. onset [A], width [A], scale factor :    3.50000    1.50000    1.00000
  | Threshold for basis-dependent cutoff potential is   0.100000E-03
  | Found data for basic radial integration grid :    36 points, outermost radius =    5.000 A
  | Found multiplier for basic radial grid :   1
  | Found angular grid specification: user-specified.
  | Specified grid contains     5 separate shells.
  | Check grid settings after all constraints further below.
  | Found free-atom valence shell :  2 s   2.000
  | Found free-atom valence shell :  2 p   4.000
  | Found free-ion valence shell :  2 s   1.000
  | Found free-ion valence shell :  2 p   3.000
  | Found hydrogenic basis function :  2 p   1.800
  | Found hydrogenic basis function :  3 d   7.600
  | Found hydrogenic basis function :  3 s   6.400
  | Found request for '+U' treatment for  2 p shell, U =     0.000000 eV.
  Species O                   : Missing cutoff potential type.
  Defaulting to exp(1/x)/(1-x)^2 type cutoff potential.
  Species O : No 'logarithmic' tag. Using default grid for free atom:
  | Default logarithmic grid data [bohr] : 0.1000E-03 0.1000E+03 0.1012E+01
  Species O : On-site basis accuracy parameter (for Gram-Schmidt orthonormalisation) not specified.
  Using default value basis_acc =  0.1000000E-03.
  Species O                   : Using default innermost maximum threshold i_radial=  2 for radial functions.
  Species O                   : Default cutoff onset for free atom density etc. : 0.35000000E+01 AA.
  Species O                   : Basic radial grid will be enhanced according to radial_multiplier =   1, to contain    36 grid points.
 
  Finished reading input file 'control.in'.
 
------------------------------------------------------------


------------------------------------------------------------
          Reading geometry description geometry.in.
------------------------------------------------------------
  | The smallest distance between any two atoms is         1.91166171 AA.
  | The first atom of this pair is atom number                      9 .
  | The second atom of this pair is atom number                     6 .
  | Wigner-Seitz cell of the first atom image           1     0     0 .
  | (The Wigner-Seitz cell of the second atom is 0 0 0  by definition.)

  Symmetry information by spglib:
  | Precision set to  0.1E-04
  | Number of Operations  : 12
  | Space group           : 12
  | International         : C2/m
  | Schoenflies           : C2h^3
  Input structure read successfully.
  The structure contains       12 atoms,  and a total of        138.000 electrons.

  Input geometry:
  | Unit cell:
  |        2.81460000        0.00000000        0.00000000
  |       -1.40730000        2.43751510        0.00000000
  |        0.00000000        0.00000000       14.05370000
  | Atomic structure:
  |       Atom                x [A]            y [A]            z [A]
  |    1: Species Li           -0.00000002       -0.00000000       -0.00000000
  |    2: Species Li            1.40729998        0.81250503        4.68456667
  |    3: Species Li           -0.00000002        1.62501007        9.36913334
  |    4: Species Co            0.00000006        0.00000000        7.02685019
  |    5: Species Co            1.40730001        0.81250503       11.71141695
  |    6: Species Co            0.00000006        1.62501008        2.34228284
  |    7: Species O            -0.00000004       -0.00808414       10.69161187
  |    8: Species O             0.00000000        0.00808414        3.36208810
  |    9: Species O             1.40729999        0.80442089        1.32247840
  |   10: Species O             1.40729998        0.82058918        8.04665489
  |   11: Species O             0.00000001        1.61692592        6.00704518
  |   12: Species O            -0.00000002        1.63309422       12.73122157

  Lattice parameters for 3D lattice (in Angstroms) :     2.814600    2.814600   14.053700
  Angle(s) between unit vectors (in degrees)       :    90.000000   90.000000  120.000000


  Quantities derived from the lattice vectors:
  | Reciprocal lattice vector 1:  2.232355  1.288851  0.000000
  | Reciprocal lattice vector 2:  0.000000  2.577701  0.000000
  | Reciprocal lattice vector 3:  0.000000  0.000000  0.447084
  | Unit cell volume                               :   0.964172E+02  A^3

  Fractional coordinates:
                         L1                L2                L3
       atom_frac        -0.00000001       -0.00000000       -0.00000000  Li
       atom_frac         0.66666666        0.33333333        0.33333333  Li
       atom_frac         0.33333332        0.66666667        0.66666667  Li
       atom_frac         0.00000002        0.00000000        0.50000001  Co
       atom_frac         0.66666667        0.33333333        0.83333335  Co
       atom_frac         0.33333336        0.66666667        0.16666663  Co
       atom_frac        -0.00165829       -0.00331655        0.76076847  O
       atom_frac         0.00165828        0.00331655        0.23923153  O
       atom_frac         0.66500839        0.33001678        0.09410180  O
       atom_frac         0.66832494        0.33664988        0.57256487  O
       atom_frac         0.33167506        0.66335011        0.42743514  O
       atom_frac         0.33499160        0.66998322        0.90589820  O

 
  Finished reading input file 'control.in'.
 

------------------------------------------------------------
          Reading geometry description geometry.in.
------------------------------------------------------------
 
  Consistency checks for stacksize environment parameter are next.
 
  | Maximum stacksize for task 0: unlimited
  | Maximum stacksize for task 1: unlimited
  | Maximum stacksize for task 2: unlimited
  | Maximum stacksize for task 3: unlimited
  | Maximum stacksize for task 4: unlimited
  | Maximum stacksize for task 5: unlimited
  | Maximum stacksize for task 6: unlimited
  | Maximum stacksize for task 7: unlimited
  | Maximum stacksize for task 8: unlimited
  | Maximum stacksize for task 9: unlimited
  | Maximum stacksize for task 10: unlimited
  | Maximum stacksize for task 11: unlimited
  | Maximum stacksize for task 12: unlimited
  | Maximum stacksize for task 13: unlimited
  | Maximum stacksize for task 14: unlimited
  | Maximum stacksize for task 15: unlimited
  | Maximum stacksize for task 16: unlimited
  | Maximum stacksize for task 17: unlimited
  | Maximum stacksize for task 18: unlimited
  | Maximum stacksize for task 19: unlimited
  | Maximum stacksize for task 20: unlimited
  | Maximum stacksize for task 21: unlimited
  | Maximum stacksize for task 22: unlimited
  | Maximum stacksize for task 23: unlimited
  | Maximum stacksize for task 24: unlimited
  | Maximum stacksize for task 25: unlimited
  | Maximum stacksize for task 26: unlimited
  | Maximum stacksize for task 27: unlimited
  | Maximum stacksize for task 28: unlimited
  | Maximum stacksize for task 29: unlimited
  | Maximum stacksize for task 30: unlimited
  | Maximum stacksize for task 31: unlimited
  | Maximum stacksize for task 32: unlimited
  | Maximum stacksize for task 33: unlimited
  | Maximum stacksize for task 34: unlimited
  | Maximum stacksize for task 35: unlimited
  | Maximum stacksize for task 36: unlimited
  | Maximum stacksize for task 37: unlimited
  | Maximum stacksize for task 38: unlimited
  | Maximum stacksize for task 39: unlimited
  | Current stacksize for task 0: unlimited
  | Current stacksize for task 1: unlimited
  | Current stacksize for task 2: unlimited
  | Current stacksize for task 3: unlimited
  | Current stacksize for task 4: unlimited
  | Current stacksize for task 5: unlimited
  | Current stacksize for task 6: unlimited
  | Current stacksize for task 7: unlimited
  | Current stacksize for task 8: unlimited
  | Current stacksize for task 9: unlimited
  | Current stacksize for task 10: unlimited
  | Current stacksize for task 11: unlimited
  | Current stacksize for task 12: unlimited
  | Current stacksize for task 13: unlimited
  | Current stacksize for task 14: unlimited
  | Current stacksize for task 15: unlimited
  | Current stacksize for task 16: unlimited
  | Current stacksize for task 17: unlimited
  | Current stacksize for task 18: unlimited
  | Current stacksize for task 19: unlimited
  | Current stacksize for task 20: unlimited
  | Current stacksize for task 21: unlimited
  | Current stacksize for task 22: unlimited
  | Current stacksize for task 23: unlimited
  | Current stacksize for task 24: unlimited
  | Current stacksize for task 25: unlimited
  | Current stacksize for task 26: unlimited
  | Current stacksize for task 27: unlimited
  | Current stacksize for task 28: unlimited
  | Current stacksize for task 29: unlimited
  | Current stacksize for task 30: unlimited
  | Current stacksize for task 31: unlimited
  | Current stacksize for task 32: unlimited
  | Current stacksize for task 33: unlimited
  | Current stacksize for task 34: unlimited
  | Current stacksize for task 35: unlimited
  | Current stacksize for task 36: unlimited
  | Current stacksize for task 37: unlimited
  | Current stacksize for task 38: unlimited
  | Current stacksize for task 39: unlimited
 
  Consistency checks for the contents of control.in are next.
 
  MPI_IN_PLACE appears to work with this MPI implementation.
  | Keeping use_mpi_in_place .true. (see manual).
  Target number of points in a grid batch is not set. Defaulting to  100
  Method for grid partitioning is not set. Defaulting to parallel hash+maxmin partitioning.
  Batch size limit is not set. Defaulting to    200
  By default, will store active basis functions for each batch.
  If in need of memory, prune_basis_once .false. can be used to disable this option.
  communication_type for Hartree potential was not specified.
  Defaulting to calc_hartree .
  Defaulting to Pulay charge density mixer.
  Pulay mixer: Number of relevant iterations not set.
  Defaulting to    8 iterations.
  Pulay mixer: Number of initial linear mixing iterations not set.
  Defaulting to    0 iterations.
  Work space size for distributed Hartree potential not set.
  Defaulting to   0.200000E+03 MB.
  Mixing parameter for charge density mixing has not been set.
  Using default: charge_mix_param =     0.0500.
  The mixing parameter will be adjusted in iteration number     2 of the first full s.c.f. cycle only.
  Algorithm-dependent basis array size parameters:
  | n_max_pulay                         :        8
  Maximum number of self-consistency iterations not provided.
  Presetting  1000 iterations.
  Presetting      1001 iterations before the initial mixing cycle
  is restarted anyway using the sc_init_iter criterion / keyword.
  Presetting a factor      1.000 between actual scf density residual
  and density convergence criterion sc_accuracy_rho below which sc_init_iter
  takes no effect.
  Geometry relaxation not requested: no relaxation will be performed.
  Handling of forces: Unphysical translation and rotation will be removed from forces.
  No accuracy limit for integral partition fn. given. Defaulting to  0.1000E-14.
  No threshold value for u(r) in integrations given. Defaulting to  0.1000E-05.
  No accuracy for occupation numbers given. Defaulting to  0.1000E-12.
  No threshold value for occupation numbers given. Defaulting to  0.0000E+00.
  No accuracy for fermi level given. Defaulting to  0.1000E-19.
  Maximum # of iterations to find E_F not set. Defaulting to  200.
  Preferred method for the eigenvalue solver ('KS_method') not specified in 'control.in'.
  Defaulting to serial version, LAPACK (via ELSI), since more k-points than CPUs available.
  Will not use alltoall communication since running on < 1024 CPUs.
  Threshold for basis singularities not set.
  Default threshold for basis singularities:  0.1000E-04
  partition_type (choice of integration weights) for integrals was not specified.
  | Using a version of the partition function of Stratmann and coworkers ('stratmann_sparse').
  | At each grid point, the set of atoms used to build the partition table is smoothly restricted to
  | only those atoms whose free-atom density would be non-zero at that grid point.
  Partitioning for Hartree potential was not defined. Using partition_type for integrals.
  | Adjusted default value of keyword multip_moments_threshold to:       0.10000000E-11
  | This value may affect high angular momentum components of the Hartree potential in periodic systems.
  Spin handling was not defined in control.in. Defaulting to unpolarized case.
  Angular momentum expansion for Kerker preconditioner not set explicitly.
  | Using default value of   0
  No explicit requirement for turning off preconditioner.
  | By default, it will be turned off when the charge convergence reaches
  | sc_accuracy_rho  =   0.100000E-05
  | sc_accuracy_eev  =   0.100000E-02
  | sc_accuracy_etot =   0.100000E-05
  No special mixing parameter while Kerker preconditioner is on.
  Using default: charge_mix_param =     0.0500.
  No q(lm)/r^(l+1) cutoff set for long-range Hartree potential.
  | Using default value of  0.100000E-09 .
  | Verify using the multipole_threshold keyword.
  Defaulting to new monopole extrapolation.
  Density update method: automatic selection selected.
  Using density matrix based charge density update.
 * Warning: DFT+U requires using density matrix based charge density update.
  Using density matrix based charge density update.
  Using packed matrix style: index .
  Defaulting to use time-reversal symmetry for k-point grid.
  Charge integration errors on the 3D integration grid will be compensated
  by explicit normalization and distribution of residual charges.
  Use the "compensate_multipole_errors" flag to change this behaviour.
  Set 'collect_eigenvectors' to be '.true.' for all serial calculations. This is mandatory.
  Set 'collect_eigenvectors' to be '.true.' for KS_method lapack_fast and serial.
 
  Consistency checks for the contents of geometry.in are next.
 

  Range separation radius for Ewald summation (hartree_convergence_parameter):      2.71430466 bohr.
  Number of empty states per atom not set in control.in - providing a guess from actual geometry.
  | Total number of empty states used during s.c.f. cycle:       39
  If you use a very high smearing, use empty_states (per atom!) in control.in to increase this value.

  Structure-dependent array size parameters: 
  | Maximum number of distinct radial functions  :       23
  | Maximum number of basis functions            :      219
  | Number of Kohn-Sham states (occupied + empty):      108
------------------------------------------------------------

------------------------------------------------------------
          Preparing all fixed parts of the calculation.
------------------------------------------------------------
  Determining machine precision:
    2.225073858507201E-308
  Setting up grids for atomic and cluster calculations.

  Creating wave function, potential, and density for free atoms.

  Species: Li

  List of occupied orbitals and eigenvalues:
    n    l              occ      energy [Ha]    energy [eV]
    1    0           2.0000        -1.849178       -50.3187
    2    0           1.0000        -0.083380        -2.2689


  Species: Co

  List of occupied orbitals and eigenvalues:
    n    l              occ      energy [Ha]    energy [eV]
    1    0           2.0000      -280.947138     -7644.9606
    2    0           2.0000       -33.003045      -898.0585
    3    0           2.0000        -3.736818      -101.6840
    4    0           2.0000        -0.202214        -5.5025
    2    1           6.0000       -28.302365      -770.1465
    3    1           6.0000        -2.400315       -65.3159
    3    2           7.0000        -0.304321        -8.2810


  Species: O

  List of occupied orbitals and eigenvalues:
    n    l              occ      energy [Ha]    energy [eV]
    1    0           2.0000       -18.786109      -511.1960
    2    0           2.0000        -0.872635       -23.7456
    2    1           4.0000        -0.337687        -9.1889


  Adding cutoff potential to free-atom effective potential.
  Creating fixed part of basis set: Ionic, confined, hydrogenic.
 
  Li                   hydrogenic:
 
  List of hydrogenic basis orbitals: 
    n    l      effective z      eigenvalue [eV]  inner max. [A]     outer max. [A]     outer radius [A]   
    2    1         1.600000        -8.6069           1.303334           1.303334           4.591005
    2    0         2.000000       -13.5631           0.203259           1.385485           4.591005
    3    2         2.600000        -9.9241           1.769240           1.769240           4.591005
 
 
  Co                   ion:

  List of free ionic orbitals and eigenvalues:
    n    l      energy [Ha]    energy [eV]
    1    0      -281.954340     -7672.3679
    2    0       -34.019462      -925.7167
    3    0        -4.716383      -128.3393
    4    0        -0.863391       -23.4941
    2    1       -29.317043      -797.7573
    3    1        -3.372789       -91.7782
    3    2        -1.241531       -33.7838


  List of ionic basis orbitals and eigenvalues:
    n    l      energy [Ha]    energy [eV]    outer radius [A]
    4    0        -0.863349       -23.4929       4.550088
    4    1        -0.612397       -16.6642       4.550088

 
  Co                   hydrogenic:
 
  List of hydrogenic basis orbitals: 
    n    l      effective z      eigenvalue [eV]  inner max. [A]     outer max. [A]     outer radius [A]   
    3    1         5.800000       -50.8545           0.273460           1.088525           4.176910
    4    3         8.200000       -57.1774           1.036577           1.036577           4.228286
    3    2         5.400000       -44.0819           0.884263           0.884263           4.176910
 
 
  O                    hydrogenic:
 
  List of hydrogenic basis orbitals: 
    n    l      effective z      eigenvalue [eV]  inner max. [A]     outer max. [A]     outer radius [A]   
    2    1         1.800000       -10.9749           1.164242           1.164242           4.578029
    3    2         7.600000       -87.3180           0.624125           0.624125           3.251020
    3    0         6.400000       -61.9207           0.061167           1.081902           4.001998
 
  Creating atomic-like basis functions for current effective potential.

  Species Li                  :

  List of atomic basis orbitals and eigenvalues:
    n    l      energy [Ha]    energy [eV]    outer radius [A]
    1    0        -1.849178       -50.3187       4.062706
    2    0        -0.083380        -2.2689       4.591005


  Species Co                  :

  List of atomic basis orbitals and eigenvalues:
    n    l      energy [Ha]    energy [eV]    outer radius [A]
    1    0      -280.947138     -7644.9606       0.394613
    2    0       -33.003045      -898.0585       1.157136
    3    0        -3.736818      -101.6840       3.311155
    4    0        -0.202214        -5.5025       4.606054
    2    1       -28.302365      -770.1465       1.215127
    3    1        -2.400315       -65.3159       3.881500
    3    2        -0.304321        -8.2810       4.494802


  Species O                   :

  List of atomic basis orbitals and eigenvalues:
    n    l      energy [Ha]    energy [eV]    outer radius [A]
    1    0       -18.786109      -511.1960       1.433179
    2    0        -0.872635       -23.7456       4.413171
    2    1        -0.337687        -9.1889       4.522403

  Assembling full basis from fixed parts.
 * Warning - Since '+U' treatment was requested,
 * the basis-dependent cutoff is turned off automatically.
  | Species Li :   atomic orbital   1 s accepted.
  | Species Li :   atomic orbital   2 s accepted.
  | Species Li :    hydro orbital   2 s accepted.
  | Species Li :    hydro orbital   2 p accepted.
  | Species Li :    hydro orbital   3 d accepted.
 * Warning - Since '+U' treatment was requested,
 * the basis-dependent cutoff is turned off automatically.
  | Species Co :   atomic orbital   1 s accepted.
  | Species Co :   atomic orbital   2 s accepted.
  | Species Co :   atomic orbital   3 s accepted.
  | Species Co :   atomic orbital   4 s accepted.
  | Species Co :    ionic orbital   4 s accepted.
  | Species Co :   atomic orbital   2 p accepted.
  | Species Co :   atomic orbital   3 p accepted.
  | Species Co :    ionic orbital   4 p accepted.
  | Species Co :    hydro orbital   3 p accepted.
  | Species Co :   atomic orbital   3 d accepted.
  | Species Co :    hydro orbital   3 d accepted.
  | Species Co :    hydro orbital   4 f accepted.
 * Warning - Since '+U' treatment was requested,
 * the basis-dependent cutoff is turned off automatically.
  | Species O :   atomic orbital   1 s accepted.
  | Species O :   atomic orbital   2 s accepted.
  | Species O :    hydro orbital   3 s accepted.
  | Species O :   atomic orbital   2 p accepted.
  | Species O :    hydro orbital   2 p accepted.
  | Species O :    hydro orbital   3 d accepted.
 
  Basis size parameters after reduction:
  | Total number of radial functions:       23
  | Total number of basis functions :      219
 
  Per-task memory consumption for arrays in subroutine allocate_ext:
  |           8.250324MB.
  Testing on-site integration grid accuracy.
  |  Species  Function  <phi|h_atom|phi> (log., in eV)  <phi|h_atom|phi> (rad., in eV)
           1        1                -50.3186999132                -50.3186979427
           1        2                 -2.3071316168                 -2.3037320941
           1        3                 15.7362313817                 15.7331874732
           1        4                  0.3262086529                  0.3282071330
           1        5                  6.2738034359                  6.2759396895
           2        6              -7644.9605864105              -7644.9543774452
           2        7               -898.0585355980               -898.0584659173
           2        8               -101.6839821785               -101.6839806607
           2        9                 -5.5110407092                 -5.5222650232
           2       10                  7.1855255383                  7.0927249030 ***
           2       11               -770.1465382765               -770.1465371821
           2       12                -65.3158831882                -65.3158829796
           2       13                  0.4601908362                  0.4562450609
           2       14                 16.2673413323                 16.1984227084 ***
           2       15                 -8.2810740002                 -8.2811706592
           2       16                 26.8609724462                 26.8604924962
           2       17                 32.2898310581                 32.2899950148
           3       18               -511.1960429777               -511.1959399133
           3       19                -23.7455964041                -23.7455972542
           3       20                 17.3746964700                 17.3748057881
           3       21                 -9.1890598667                 -9.1892026751
           3       22                  8.1915160719                  8.1720639763
           3       23                 45.8005976646                 45.8005620229
 * Note: Onsite integrals marked "***" above are less accurate than
 * onsite_accuracy_threshold =    0.03000 eV. Usually, this is harmless.
 * When in doubt, tighten the "radial" and/or "radial_multiplier" flags to check.

  Preparing densities etc. for the partition functions (integrals / Hartree potential).

  Preparations completed.
  max(cpu_time)          :      0.555 s.
  Wall clock time (cpu1) :      0.556 s.
------------------------------------------------------------

------------------------------------------------------------
          Begin self-consistency loop: Initialization.

          Date     :  20250315, Time     :  160442.130
------------------------------------------------------------

  Initializing index lists of integration centers etc. from given atomic structure:
  Mapping all atomic coordinates to central unit cell.

  Initializing the k-points
  Using symmetry for reducing the k-points
  | k-points reduced from:      675 to      338
  | Number of k-points                             :       338
  The eigenvectors in the calculations are COMPLEX.
  | K-points in task   0:         8
  | K-points in task   1:         9
  | K-points in task   2:         9
  | K-points in task   3:         9
  | K-points in task   4:         9
  | K-points in task   5:         9
  | K-points in task   6:         9
  | K-points in task   7:         9
  | K-points in task   8:         9
  | K-points in task   9:         9
  | K-points in task  10:         9
  | K-points in task  11:         9
  | K-points in task  12:         9
  | K-points in task  13:         9
  | K-points in task  14:         9
  | K-points in task  15:         9
  | K-points in task  16:         9
  | K-points in task  17:         9
  | K-points in task  18:         9
  | K-points in task  19:         8
  | K-points in task  20:         8
  | K-points in task  21:         8
  | K-points in task  22:         8
  | K-points in task  23:         8
  | K-points in task  24:         8
  | K-points in task  25:         8
  | K-points in task  26:         8
  | K-points in task  27:         8
  | K-points in task  28:         8
  | K-points in task  29:         8
  | K-points in task  30:         8
  | K-points in task  31:         8
  | K-points in task  32:         8
  | K-points in task  33:         8
  | K-points in task  34:         8
  | K-points in task  35:         8
  | K-points in task  36:         8
  | K-points in task  37:         8
  | K-points in task  38:         8
  | K-points in task  39:         8
  | Number of basis functions in the Hamiltonian integrals :      5079
  | Number of basis functions in a single unit cell        :       219
  | Number of centers in hartree potential         :      1907
  | Number of centers in hartree multipole         :      1478
  | Number of centers in electron density summation:      1048
  | Number of centers in basis integrals           :      1084
  | Number of centers in integrals                 :       399
  | Number of centers in hamiltonian               :      1054
  | Consuming        897 KiB for k_phase.
  | Number of super-cells (origin) [n_cells]                     :         845
  | Number of super-cells (after PM_index) [n_cells]             :         170
  | Number of super-cells in hamiltonian [n_cells_in_hamiltonian]:         170
  | Size of matrix packed + index [n_hamiltonian_matrix_size] :      645172
  | Estimated reciprocal-space cutoff momentum G_max:         3.49822420 bohr^-1 .
  | Reciprocal lattice points for long-range Hartree potential:     430
  Partitioning the integration grid into batches with parallel hashing+maxmin method.
  | Number of batches:     1037
  | Maximal batch size:     121
  | Minimal batch size:      50
  | Average batch size:      75.072
  | Standard deviation of batch sizes:      18.192

  Integration load balanced across    40 MPI tasks.
  Work distribution over tasks is as follows:
  Task     0 has       1971 integration points.
  Task     1 has       1913 integration points.
  Task     2 has       1985 integration points.
  Task     3 has       1915 integration points.
  Task     4 has       1913 integration points.
  Task     5 has       1912 integration points.
  Task     6 has       1918 integration points.
  Task     7 has       1976 integration points.
  Task     8 has       1932 integration points.
  Task     9 has       1931 integration points.
  Task    10 has       1916 integration points.
  Task    11 has       1934 integration points.
  Task    12 has       1991 integration points.
  Task    13 has       1974 integration points.
  Task    14 has       1928 integration points.
  Task    15 has       1933 integration points.
  Task    16 has       1970 integration points.
  Task    17 has       1938 integration points.
  Task    18 has       1979 integration points.
  Task    19 has       1997 integration points.
  Task    20 has       1911 integration points.
  Task    21 has       1963 integration points.
  Task    22 has       1911 integration points.
  Task    23 has       1915 integration points.
  Task    24 has       1995 integration points.
  Task    25 has       1992 integration points.
  Task    26 has       1914 integration points.
  Task    27 has       1985 integration points.
  Task    28 has       1927 integration points.
  Task    29 has       1974 integration points.
  Task    30 has       1968 integration points.
  Task    31 has       2000 integration points.
  Task    32 has       1915 integration points.
  Task    33 has       1910 integration points.
  Task    34 has       1916 integration points.
  Task    35 has       1910 integration points.
  Task    36 has       1967 integration points.
  Task    37 has       1931 integration points.
  Task    38 has       1993 integration points.
  Task    39 has       1927 integration points.
  Initializing partition tables, free-atom densities, potentials, etc. across the integration grid (initialize_grid_storage).
  | initialize_grid_storage: Actual outermost partition radius vs. multipole_radius_free
  | (-- VB: in principle, multipole_radius_free should be larger, hence this output)
  | Species        1: Confinement radius =              4.999999999999999 AA, multipole_radius_free =              5.001180127821857 AA.
  | Species        1: outer_partition_radius set to              5.001180127821857 AA .
  | Species        2: Confinement radius =              4.999999999999999 AA, multipole_radius_free =              5.017573460429229 AA.
  | Species        2: outer_partition_radius set to              5.017573460429229 AA .
  | Species        3: Confinement radius =              4.999999999999999 AA, multipole_radius_free =              5.048384829883283 AA.
  | Species        3: outer_partition_radius set to              5.048384829883283 AA .
  | The sparse table of interatomic distances needs       3750.16 kbyte instead of      9400.45 kbyte of memory.
  | Net number of integration points:    77850
  | of which are non-zero points    :    61716
  | Numerical average free-atom electrostatic potential    :    -19.38257384 eV
  Renormalizing the initial density to the exact electron count on the 3D integration grid.
  | Initial density: Formal number of electrons (from input files) :     138.0000000000
  | Integrated number of electrons on 3D grid     :     137.9988215215
  | Charge integration error                      :      -0.0011784785
  | Normalization factor for density and gradient :       1.0000085398
  Renormalizing the free-atom superposition density to the exact electron count on the 3D integration grid.
  | Formal number of electrons (from input files) :     138.0000000000
  | Integrated number of electrons on 3D grid     :     137.9988215215
  | Charge integration error                      :      -0.0011784785
  | Normalization factor for density and gradient :       1.0000085398
  Obtaining max. number of non-zero basis functions in each batch (get_n_compute_maxes).
  | Maximal number of non-zero basis functions:     1025 in task     0
  | Maximal number of non-zero basis functions:     1020 in task     1
  | Maximal number of non-zero basis functions:     1078 in task     2
  | Maximal number of non-zero basis functions:     1038 in task     3
  | Maximal number of non-zero basis functions:     1030 in task     4
  | Maximal number of non-zero basis functions:     1020 in task     5
  | Maximal number of non-zero basis functions:     1068 in task     6
  | Maximal number of non-zero basis functions:     1027 in task     7
  | Maximal number of non-zero basis functions:     1030 in task     8
  | Maximal number of non-zero basis functions:     1013 in task     9
  | Maximal number of non-zero basis functions:     1003 in task    10
  | Maximal number of non-zero basis functions:     1037 in task    11
  | Maximal number of non-zero basis functions:     1007 in task    12
  | Maximal number of non-zero basis functions:     1016 in task    13
  | Maximal number of non-zero basis functions:     1023 in task    14
  | Maximal number of non-zero basis functions:     1003 in task    15
  | Maximal number of non-zero basis functions:     1025 in task    16
  | Maximal number of non-zero basis functions:     1035 in task    17
  | Maximal number of non-zero basis functions:     1034 in task    18
  | Maximal number of non-zero basis functions:     1028 in task    19
  | Maximal number of non-zero basis functions:     1031 in task    20
  | Maximal number of non-zero basis functions:      992 in task    21
  | Maximal number of non-zero basis functions:     1019 in task    22
  | Maximal number of non-zero basis functions:      999 in task    23
  | Maximal number of non-zero basis functions:     1035 in task    24
  | Maximal number of non-zero basis functions:     1021 in task    25
  | Maximal number of non-zero basis functions:     1004 in task    26
  | Maximal number of non-zero basis functions:     1020 in task    27
  | Maximal number of non-zero basis functions:     1004 in task    28
  | Maximal number of non-zero basis functions:     1030 in task    29
  | Maximal number of non-zero basis functions:      996 in task    30
  | Maximal number of non-zero basis functions:     1027 in task    31
  | Maximal number of non-zero basis functions:     1027 in task    32
  | Maximal number of non-zero basis functions:      979 in task    33
  | Maximal number of non-zero basis functions:     1008 in task    34
  | Maximal number of non-zero basis functions:     1031 in task    35
  | Maximal number of non-zero basis functions:     1001 in task    36
  | Maximal number of non-zero basis functions:     1030 in task    37
  | Maximal number of non-zero basis functions:     1013 in task    38
  | Maximal number of non-zero basis functions:     1007 in task    39
  Allocating        2.887 MB for KS_eigenvector_complex
  Integrating Hamiltonian matrix: batch-based integration.
  Time summed over all CPUs for integration: real work       16.440 s, elapsed       17.639 s
  Integrating overlap matrix.
  Time summed over all CPUs for integration: real work       11.250 s, elapsed       12.415 s
  Decreasing sparse matrix size:
  | Tolerance:  0.1000E-12
  Hamiltonian matrix
  | Array has   559665 nonzero elements out of   645172 elements
  | Sparsity factor is 0.133
  Overlap matrix
  | Array has   518275 nonzero elements out of   645172 elements
  | Sparsity factor is 0.197
  New size of hamiltonian matrix:      559830

  Updating Kohn-Sham eigenvalues and eigenvectors using ELSI and the (modified) LAPACK eigensolver.
  Singularity check in k-point 40, task 0 (analysis for other k-points/tasks may follow below):
  Overlap matrix is not singular
  | Lowest and highest eigenvalues :  0.3186E-03,  0.7700E+01
  Finished singularity check of overlap matrix
  | Time :     0.011 s
  Starting LAPACK eigensolver
  Finished Cholesky decomposition
  | Time :     0.002 s
  Finished transformation to standard eigenproblem
  | Time :     0.003 s
  Finished solving standard eigenproblem
  | Time :     0.009 s
  Finished back-transformation of eigenvectors
  | Time :     0.000 s

  Obtaining occupation numbers and chemical potential using ELSI.
  | Chemical potential (Fermi level):    -8.02636625 eV
  Writing Kohn-Sham eigenvalues.
  K-point:       1 at    0.000000    0.000000    0.000000 (in units of recip. lattice)

  State    Occupation    Eigenvalue [Ha]    Eigenvalue [eV]
      1       2.00000        -280.968983        -7645.55502
      2       2.00000        -280.968983        -7645.55502
      3       2.00000        -280.968983        -7645.55502
      4       2.00000         -33.025991         -898.68295
      5       2.00000         -33.025991         -898.68295
      6       2.00000         -33.025991         -898.68295
      7       2.00000         -28.325090         -770.76491
      8       2.00000         -28.325090         -770.76491
      9       2.00000         -28.325090         -770.76491
     10       2.00000         -28.325079         -770.76462
     11       2.00000         -28.325079         -770.76462
     12       2.00000         -28.325079         -770.76462
     13       2.00000         -28.325075         -770.76452
     14       2.00000         -28.325075         -770.76452
     15       2.00000         -28.325075         -770.76452
     16       2.00000         -18.893475         -514.11760
     17       2.00000         -18.893475         -514.11760
     18       2.00000         -18.893475         -514.11760
     19       2.00000         -18.893475         -514.11760
     20       2.00000         -18.893475         -514.11760
     21       2.00000         -18.893475         -514.11760
     22       2.00000          -3.771703         -102.63325
     23       2.00000          -3.771703         -102.63325
     24       2.00000          -3.771703         -102.63325
     25       2.00000          -2.438042          -66.34250
     26       2.00000          -2.438042          -66.34250
     27       2.00000          -2.438040          -66.34245
     28       2.00000          -2.437310          -66.32258
     29       2.00000          -2.437310          -66.32258
     30       2.00000          -2.437309          -66.32256
     31       2.00000          -2.437103          -66.31695
     32       2.00000          -2.437103          -66.31695
     33       2.00000          -2.437103          -66.31693
     34       2.00000          -1.880494          -51.17086
     35       2.00000          -1.880481          -51.17049
     36       2.00000          -1.880481          -51.17049
     37       2.00000          -1.102702          -30.00603
     38       2.00000          -1.099750          -29.92571
     39       2.00000          -1.099750          -29.92571
     40       2.00000          -1.048540          -28.53223
     41       2.00000          -1.048540          -28.53223
     42       2.00000          -1.043649          -28.39913
     43       2.00000          -0.618201          -16.82211
     44       2.00000          -0.595547          -16.20566
     45       2.00000          -0.595547          -16.20566
     46       2.00000          -0.547757          -14.90522
     47       2.00000          -0.546756          -14.87799
     48       2.00000          -0.546741          -14.87759
     49       2.00000          -0.546741          -14.87759
     50       2.00000          -0.545834          -14.85289
     51       2.00000          -0.545834          -14.85289
     52       2.00000          -0.496154          -13.50103
     53       2.00000          -0.496154          -13.50103
     54       2.00000          -0.464147          -12.63008
     55       2.00000          -0.462535          -12.58623
     56       2.00000          -0.462535          -12.58623
     57       2.00000          -0.461677          -12.56287
     58       2.00000          -0.461677          -12.56287
     59       2.00000          -0.460644          -12.53475
     60       2.00000          -0.459974          -12.51653
     61       2.00000          -0.356682           -9.70580
     62       2.00000          -0.356482           -9.70036
     63       2.00000          -0.356482           -9.70036
     64       2.00000          -0.356186           -9.69230
     65       2.00000          -0.355976           -9.68661
     66       2.00000          -0.355976           -9.68661
     67       2.00000          -0.330131           -8.98332
     68       2.00000          -0.329427           -8.96417
     69       2.00000          -0.329427           -8.96417
     70       0.00000          -0.260726           -7.09472
     71       0.00000          -0.260475           -7.08788
     72       0.00000          -0.260475           -7.08788
     73       0.00000          -0.259017           -7.04820
     74       0.00000          -0.258635           -7.03782
     75       0.00000          -0.258635           -7.03782
     76       0.00000          -0.130023           -3.53811
     77       0.00000          -0.098773           -2.68775
     78       0.00000          -0.098773           -2.68775
     79       0.00000          -0.049705           -1.35254
     80       0.00000          -0.049058           -1.33492
     81       0.00000          -0.049058           -1.33492
     82       0.00000           0.115823            3.15171
     83       0.00000           0.115823            3.15171
     84       0.00000           0.127746            3.47616
     85       0.00000           0.259132            7.05134
     86       0.00000           0.259283            7.05546
     87       0.00000           0.293965            7.99920
     88       0.00000           0.293965            7.99921
     89       0.00000           0.294155            8.00437
     90       0.00000           0.294155            8.00437
     91       0.00000           0.313999            8.54434
     92       0.00000           0.313999            8.54434
     93       0.00000           0.402153           10.94313
     94       0.00000           0.402153           10.94314
     95       0.00000           0.404649           11.01106
     96       0.00000           0.404649           11.01106
     97       0.00000           0.470618           12.80618
     98       0.00000           0.503151           13.69144
     99       0.00000           0.504044           13.71573
    100       0.00000           0.525601           14.30232
    101       0.00000           0.536285           14.59305
    102       0.00000           0.539895           14.69128
    103       0.00000           0.562926           15.31799
    104       0.00000           0.562926           15.31799
    105       0.00000           0.564271           15.35458
    106       0.00000           0.564271           15.35458
    107       0.00000           0.658054           17.90657
    108       0.00000           0.658054           17.90657

  What follows are estimated values for band gap, HOMO, LUMO, etc.
  | They are estimated on a discrete k-point grid and not necessarily exact.
  | For converged numbers, create a DOS and/or band structure plot on a denser k-grid.

  Highest occupied state (VBM) at     -8.78642809 eV (relative to internal zero)
  | Occupation number:      2.00000000
  | K-point:     182 at    0.333333    0.666667    0.333333 (in units of recip. lattice)

  Lowest unoccupied state (CBM) at    -7.58488728 eV (relative to internal zero)
  | Occupation number:      0.00000000
  | K-point:     150 at    0.266667    0.733333    0.000000 (in units of recip. lattice)

  ESTIMATED overall HOMO-LUMO gap:      1.20154081 eV between HOMO at k-point 182 and LUMO at k-point 150
  | This appears to be an indirect band gap.
  | Smallest direct gap :      1.20923767 eV for k_point 150 at    0.266667    0.733333    0.000000 (in units of recip. lattice)
  The gap value is above 0.2 eV. Unless you are using a very sparse k-point grid,
  this system is most likely an insulator or a semiconductor.
  Calculating total energy contributions from superposition of free atom densities.

  Total energy components:
  | Sum of eigenvalues            :       -2736.62768175 Ha      -74467.42808134 eV
  | XC energy correction          :        -225.61688549 Ha       -6139.34782078 eV
  | XC potential correction       :         298.33395860 Ha        8118.08005698 eV
  | Free-atom electrostatic energy:       -1998.28371285 Ha      -54376.06645042 eV
  | Hartree energy correction     :           0.00000000 Ha           0.00000000 eV
  | DFT+U energy correction       :           0.00000000 Ha           0.00000000 eV
  | Entropy correction            :          -0.00000000 Ha          -0.00000000 eV
  | ---------------------------
  | Total energy                  :       -4662.19432148 Ha     -126864.76229556 eV
  | Total energy, T -> 0          :       -4662.19432148 Ha     -126864.76229556 eV  <-- do not rely on this value for anything but (periodic) metals
  | Electronic free energy        :       -4662.19432148 Ha     -126864.76229556 eV

  Derived energy quantities:
  | Kinetic energy                :        4712.61237000 Ha      128236.70719953 eV
  | Electrostatic energy          :       -9149.18980599 Ha     -248962.12167431 eV
  | Energy correction for multipole
  | error in Hartree potential    :           0.00000000 Ha           0.00000000 eV
  | Sum of eigenvalues per atom                           :       -6205.61900678 eV
  | Total energy (T->0) per atom                          :      -10572.06352463 eV  <-- do not rely on this value for anything but (periodic) metals
  | Electronic free energy per atom                       :      -10572.06352463 eV
  Initialize hartree_potential_storage
  Max. number of atoms included in rho_multipole:           12

  End scf initialization - timings             :  max(cpu_time)    wall_clock(cpu1)
  | Time for scf. initialization               :        2.047 s           2.053 s
  | Boundary condition initialization          :        0.263 s           0.264 s
  | Integration                                :        0.799 s           0.799 s
  | Solution of K.-S. eqns.                    :        0.306 s           0.297 s
  | Grid partitioning                          :        0.060 s           0.060 s
  | Preloading free-atom quantities on grid    :        0.352 s           0.353 s
  | Free-atom superposition energy             :        0.028 s           0.028 s
  | Total energy evaluation                    :        0.001 s           0.001 s

  Partial memory accounting:
  | Current value for overall tracked memory usage:
  |   Minimum:       13.566 MB (on task  0)
  |   Maximum:       13.927 MB (on task  1)
  |   Average:       13.728 MB
  | Peak value for overall tracked memory usage:
  |   Minimum:       30.662 MB (on task 33 after allocating wave)
  |   Maximum:       33.402 MB (on task  2 after allocating wave)
  |   Average:       31.815 MB
  | Largest tracked array allocation so far:
  |   Minimum:        7.312 MB (hamiltonian_shell on task 33)
  |   Maximum:        8.866 MB (hamiltonian_shell on task  2)
  |   Average:        7.953 MB
  Note:  These values currently only include a subset of arrays which are explicitly tracked.
  The "true" memory usage will be greater.
------------------------------------------------------------
  Evaluating new KS density using the density matrix
  Evaluating density matrix
  Time summed over all CPUs for getting density from density matrix: real work       31.258 s, elapsed       33.308 s
  Integration grid: deviation in total charge (<rho> - N_e) =   7.020162E-12

------------------------------------------------------------
          Begin self-consistency iteration #    1

  Date     :  20250315, Time     :  160445.071
------------------------------------------------------------
  Pulay mixing of updated and previous charge densities.
  Renormalizing the density to the exact electron count on the 3D integration grid.
  | Formal number of electrons (from input files) :     138.0000000000
  | Integrated number of electrons on 3D grid     :     137.9991038285
  | Charge integration error                      :      -0.0008961715
  | Normalization factor for density and gradient :       1.0000064940

  Evaluating partitioned Hartree potential by multipole expansion.
  | Original multipole sum: apparent total charge =  -0.918418E-14
  | Sum of charges compensated after spline to logarithmic grids =   0.277834E-05
  | Analytical far-field extrapolation by fixed multipoles:
  | Hartree multipole sum: apparent total charge =  -0.924260E-14
  Summing up the Hartree potential.
  Time summed over all CPUs for potential: real work        6.529 s, elapsed        6.785 s
  | RMS charge density error from multipole expansion :   0.153068E-02
  | Average real-space part of the electrostatic potential :      0.03372050 eV

  Integrating Hamiltonian matrix: batch-based integration.
  Time summed over all CPUs for integration: real work       23.898 s, elapsed       25.520 s
  ----------------------------------------------------------------
  Adding Hubbard correction to Hamiltonian
  ----------------------------------------------------------------
  !--Definition for DFT+U occupation matrix is:    'on-site'
  correlated subspace  1      |  U =   0.00 eV
   avg. occ. hubbard projectors:  1.3565
   petukhov mixing factor      :  1.0000
  ----------------------------------------------------------------
   occupation matrix (subspace #           1 , spin            1 )
   1.42957   0.00000  -0.00000   0.74643   0.00000
   0.00000   0.95886   0.00329   0.00000  -0.74471
  -0.00000   0.00329   1.98238   0.00000   0.00159
   0.74643   0.00000   0.00000   0.97072  -0.00000
   0.00000  -0.74471   0.00159  -0.00000   1.44078
  ----------------------------------------------------------------
  correlated subspace  2      |  U =   0.00 eV
   avg. occ. hubbard projectors:  1.3565
   petukhov mixing factor      :  1.0000
  ----------------------------------------------------------------
   occupation matrix (subspace #           2 , spin            1 )
   1.42957  -0.00000   0.00000   0.74643  -0.00000
  -0.00000   0.95886   0.00329  -0.00000  -0.74471
   0.00000   0.00329   1.98238  -0.00000   0.00159
   0.74643  -0.00000  -0.00000   0.97072   0.00000
  -0.00000  -0.74471   0.00159   0.00000   1.44078
  ----------------------------------------------------------------
  correlated subspace  3      |  U =   0.00 eV
   avg. occ. hubbard projectors:  1.3565
   petukhov mixing factor      :  1.0000
  ----------------------------------------------------------------
   occupation matrix (subspace #           3 , spin            1 )
   1.42957  -0.00000   0.00000   0.74643  -0.00000
  -0.00000   0.95886   0.00329  -0.00000  -0.74471
   0.00000   0.00329   1.98238  -0.00000   0.00159
   0.74643  -0.00000  -0.00000   0.97072   0.00000
  -0.00000  -0.74471   0.00159   0.00000   1.44078
  ----------------------------------------------------------------
  correlated subspace  4      |  U =   0.00 eV
   avg. occ. hubbard projectors:  1.5882
   petukhov mixing factor      :  1.0000
  ----------------------------------------------------------------
   occupation matrix (subspace #           4 , spin            1 )
   1.55780   0.00098  -0.00000
   0.00098   1.64506  -0.00000
  -0.00000  -0.00000   1.56175
  ----------------------------------------------------------------
  correlated subspace  5      |  U =   0.00 eV
   avg. occ. hubbard projectors:  1.5882
   petukhov mixing factor      :  1.0000
  ----------------------------------------------------------------
   occupation matrix (subspace #           5 , spin            1 )
   1.55780   0.00098   0.00000
   0.00098   1.64506   0.00000
   0.00000   0.00000   1.56175
  ----------------------------------------------------------------
  correlated subspace  6      |  U =   0.00 eV
   avg. occ. hubbard projectors:  1.5882
   petukhov mixing factor      :  1.0000
  ----------------------------------------------------------------
   occupation matrix (subspace #           6 , spin            1 )
   1.55780   0.00098  -0.00000
   0.00098   1.64506  -0.00000
  -0.00000  -0.00000   1.56175
  ----------------------------------------------------------------
  correlated subspace  7      |  U =   0.00 eV
   avg. occ. hubbard projectors:  1.5882
   petukhov mixing factor      :  1.0000
  ----------------------------------------------------------------
   occupation matrix (subspace #           7 , spin            1 )
   1.55780   0.00098   0.00000
   0.00098   1.64506   0.00000
   0.00000   0.00000   1.56175
  ----------------------------------------------------------------
  correlated subspace  8      |  U =   0.00 eV
   avg. occ. hubbard projectors:  1.5882
   petukhov mixing factor      :  1.0000
  ----------------------------------------------------------------
   occupation matrix (subspace #           8 , spin            1 )
   1.55780   0.00098  -0.00000
   0.00098   1.64506  -0.00000
  -0.00000  -0.00000   1.56175
  ----------------------------------------------------------------
  correlated subspace  9      |  U =   0.00 eV
   avg. occ. hubbard projectors:  1.5882
   petukhov mixing factor      :  1.0000
  ----------------------------------------------------------------
   occupation matrix (subspace #           9 , spin            1 )
   1.55780   0.00098   0.00000
   0.00098   1.64506   0.00000
   0.00000   0.00000   1.56175
  ----------------------------------------------------------------

  Updating Kohn-Sham eigenvalues and eigenvectors using ELSI and the (modified) LAPACK eigensolver.
  Starting LAPACK eigensolver
  Finished Cholesky decomposition
  | Time :     0.001 s
  Finished transformation to standard eigenproblem
  | Time :     0.003 s
  Finished solving standard eigenproblem
  | Time :     0.011 s
  Finished back-transformation of eigenvectors
  | Time :     0.001 s

  Obtaining occupation numbers and chemical potential using ELSI.
  | Chemical potential (Fermi level):    -8.94136988 eV
  Writing Kohn-Sham eigenvalues.
  K-point:       1 at    0.000000    0.000000    0.000000 (in units of recip. lattice)

  State    Occupation    Eigenvalue [Ha]    Eigenvalue [eV]
      1       2.00000        -282.381651        -7683.99569
      2       2.00000        -282.381649        -7683.99562
      3       2.00000        -282.381649        -7683.99562
      4       2.00000         -33.529995         -912.39758
      5       2.00000         -33.529960         -912.39664
      6       2.00000         -33.529960         -912.39664
      7       2.00000         -28.658271         -779.83124
      8       2.00000         -28.658271         -779.83124
      9       2.00000         -28.658255         -779.83080
     10       2.00000         -28.658251         -779.83068
     11       2.00000         -28.658251         -779.83068
     12       2.00000         -28.658235         -779.83024
     13       2.00000         -28.658090         -779.82632
     14       2.00000         -28.658090         -779.82632
     15       2.00000         -28.658081         -779.82606
     16       2.00000         -19.249196         -523.79727
     17       2.00000         -19.249193         -523.79721
     18       2.00000         -19.249193         -523.79720
     19       2.00000         -19.249187         -523.79703
     20       2.00000         -19.249187         -523.79702
     21       2.00000         -19.249182         -523.79690
     22       2.00000          -3.973683         -108.12942
     23       2.00000          -3.973664         -108.12891
     24       2.00000          -3.973664         -108.12891
     25       2.00000          -2.566679          -69.84288
     26       2.00000          -2.566679          -69.84288
     27       2.00000          -2.566679          -69.84288
     28       2.00000          -2.566176          -69.82920
     29       2.00000          -2.566176          -69.82920
     30       2.00000          -2.566176          -69.82919
     31       2.00000          -2.565989          -69.82411
     32       2.00000          -2.565989          -69.82411
     33       2.00000          -2.565988          -69.82409
     34       2.00000          -1.998615          -54.38507
     35       2.00000          -1.998614          -54.38507
     36       2.00000          -1.998613          -54.38503
     37       2.00000          -1.179453          -32.09456
     38       2.00000          -1.176269          -32.00790
     39       2.00000          -1.176269          -32.00790
     40       2.00000          -1.127486          -30.68046
     41       2.00000          -1.127486          -30.68046
     42       2.00000          -1.122603          -30.54758
[...]
   Hellmann-Feynman              :  0.644295E-06  0.115275E+00 -0.509824E+01
   Ionic forces                  :  0.000000E+00  0.000000E+00  0.000000E+00
   Multipole                     :  0.657018E-07  0.160081E-01 -0.889598E-01
   Pulay + GGA                   : -0.229799E-06 -0.130756E+00  0.518702E+01
   ----------------------------------------------------------------
   Total forces(  11)            :  0.480197E-06  0.526753E-03 -0.176277E-03
  atom #   12
   Hellmann-Feynman              :  0.396777E-06 -0.115275E+00  0.509824E+01
   Ionic forces                  :  0.000000E+00  0.000000E+00  0.000000E+00
   Multipole                     :  0.447511E-07 -0.160081E-01  0.889601E-01
   Pulay + GGA                   : -0.139481E-06  0.130756E+00 -0.518702E+01
   ----------------------------------------------------------------
   Total forces(  12)            :  0.302047E-06 -0.527081E-03  0.181444E-03


  Self-consistency convergence accuracy:
  | Change of charge density      :  0.3707E-06
  | Change of sum of eigenvalues  : -0.4304E-04 eV
  | Change of total energy        :  0.1891E-07 eV
  | Change of forces              :  0.1230E-04 eV/A

  Writing plus_u occupation matrix for occupation matrix control

  Writing Kohn-Sham eigenvalues.
  K-point:       1 at    0.000000    0.000000    0.000000 (in units of recip. lattice)

  State    Occupation    Eigenvalue [Ha]    Eigenvalue [eV]
      1       2.00000        -282.326780        -7682.50257
      2       2.00000        -282.326777        -7682.50249
      3       2.00000        -282.326777        -7682.50249
      4       2.00000         -33.489523         -911.29628
      5       2.00000         -33.489490         -911.29540
      6       2.00000         -33.489490         -911.29540
      7       2.00000         -28.617409         -778.71933
      8       2.00000         -28.617409         -778.71933
      9       2.00000         -28.617395         -778.71894
     10       2.00000         -28.616582         -778.69680
     11       2.00000         -28.616582         -778.69680
     12       2.00000         -28.616567         -778.69641
     13       2.00000         -28.615340         -778.66303
     14       2.00000         -28.615340         -778.66303
     15       2.00000         -28.615332         -778.66280
     16       2.00000         -19.119727         -520.27425
     17       2.00000         -19.119725         -520.27419
     18       2.00000         -19.119725         -520.27419
     19       2.00000         -19.119717         -520.27396
     20       2.00000         -19.119717         -520.27396
     21       2.00000         -19.119712         -520.27383
     22       2.00000          -3.943665         -107.31258
     23       2.00000          -3.943660         -107.31244
     24       2.00000          -3.943660         -107.31244
     25       2.00000          -2.546829          -69.30274
     26       2.00000          -2.546829          -69.30274
     27       2.00000          -2.546827          -69.30269
     28       2.00000          -2.542741          -69.19150
     29       2.00000          -2.542741          -69.19150
     30       2.00000          -2.542740          -69.19148
     31       2.00000          -2.542471          -69.18415
     32       2.00000          -2.542471          -69.18415
     33       2.00000          -2.542469          -69.18411
     34       2.00000          -2.032133          -55.29715
     35       2.00000          -2.032133          -55.29715
     36       2.00000          -2.032130          -55.29708
     37       2.00000          -1.114638          -30.33083
     38       2.00000          -1.111335          -30.24096
     39       2.00000          -1.111335          -30.24096
     40       2.00000          -1.058064          -28.79138
     41       2.00000          -1.058064          -28.79138
     42       2.00000          -1.052746          -28.64668
     43       2.00000          -0.593109          -16.13933
     44       2.00000          -0.569989          -15.51018
     45       2.00000          -0.569989          -15.51018
     46       2.00000          -0.520838          -14.17272
     47       2.00000          -0.519944          -14.14841
     48       2.00000          -0.519944          -14.14840
     49       2.00000          -0.519116          -14.12588
     50       2.00000          -0.518321          -14.10424
     51       2.00000          -0.518321          -14.10423
     52       2.00000          -0.451226          -12.27848
     53       2.00000          -0.451226          -12.27848
     54       2.00000          -0.411389          -11.19447
     55       2.00000          -0.409719          -11.14901
     56       2.00000          -0.409719          -11.14901
     57       2.00000          -0.408763          -11.12301
     58       2.00000          -0.408763          -11.12301
     59       2.00000          -0.407520          -11.08918
     60       2.00000          -0.406766          -11.06868
     61       2.00000          -0.402310          -10.94742
     62       2.00000          -0.401923          -10.93687
     63       2.00000          -0.401922          -10.93687
     64       2.00000          -0.391878          -10.66354
     65       2.00000          -0.391451          -10.65193
     66       2.00000          -0.391451          -10.65193
     67       2.00000          -0.361910           -9.84808
     68       2.00000          -0.355598           -9.67632
     69       2.00000          -0.355598           -9.67632
     70       0.00000          -0.233851           -6.36340
     71       0.00000          -0.233523           -6.35450
     72       0.00000          -0.233523           -6.35450
     73       0.00000          -0.231163           -6.29027
     74       0.00000          -0.230737           -6.27867
     75       0.00000          -0.230737           -6.27867
     76       0.00000          -0.082342           -2.24063
     77       0.00000          -0.048961           -1.33230
     78       0.00000          -0.048961           -1.33230
     79       0.00000           0.001037            0.02821
     80       0.00000           0.008805            0.23960
     81       0.00000           0.008805            0.23960
     82       0.00000           0.174089            4.73719
     83       0.00000           0.174089            4.73719
     84       0.00000           0.204948            5.57692
     85       0.00000           0.298600            8.12532
     86       0.00000           0.298989            8.13590
     87       0.00000           0.334488            9.10189
     88       0.00000           0.334488            9.10189
     89       0.00000           0.334832            9.11125
     90       0.00000           0.334832            9.11125
     91       0.00000           0.376765           10.25229
     92       0.00000           0.376765           10.25229
     93       0.00000           0.445598           12.12534
     94       0.00000           0.445598           12.12534
     95       0.00000           0.448163           12.19513
     96       0.00000           0.448163           12.19513
     97       0.00000           0.515137           14.01760
     98       0.00000           0.552873           15.04445
     99       0.00000           0.554303           15.08337
    100       0.00000           0.578631           15.74535
    101       0.00000           0.582195           15.84234
    102       0.00000           0.584788           15.91289
    103       0.00000           0.618361           16.82645
    104       0.00000           0.618361           16.82645
    105       0.00000           0.619376           16.85407
    106       0.00000           0.619376           16.85407
    107       0.00000           0.706477           19.22422
    108       0.00000           0.706477           19.22422

  What follows are estimated values for band gap, HOMO, LUMO, etc.
  | They are estimated on a discrete k-point grid and not necessarily exact.
  | For converged numbers, create a DOS and/or band structure plot on a denser k-grid.

  Highest occupied state (VBM) at     -9.46774646 eV (relative to internal zero)
  | Occupation number:      2.00000000
  | K-point:     306 at    0.800000    0.066667    0.666667 (in units of recip. lattice)

  Lowest unoccupied state (CBM) at    -7.17434482 eV (relative to internal zero)
  | Occupation number:      0.00000000
  | K-point:     150 at    0.266667    0.733333    0.000000 (in units of recip. lattice)

  ESTIMATED overall HOMO-LUMO gap:      2.29340165 eV between HOMO at k-point 306 and LUMO at k-point 150
  | This appears to be an indirect band gap.
  | Smallest direct gap :      2.37607761 eV for k_point 150 at    0.266667    0.733333    0.000000 (in units of recip. lattice)
  The gap value is above 0.2 eV. Unless you are using a very sparse k-point grid,
  this system is most likely an insulator or a semiconductor.

  Self-consistency cycle converged.

  End self-consistency iteration #    26       :  max(cpu_time)    wall_clock(cpu1)
  | Time for this iteration                    :        1.430 s           1.435 s
  | Charge density & force component update    :        0.000 s           0.000 s
  | Density mixing                             :        0.009 s           0.008 s
  | Hartree multipole update                   :        0.002 s           0.002 s
  | Hartree multipole summation                :        0.572 s           0.574 s
  | Integration                                :        0.650 s           0.651 s
  | Solution of K.-S. eqns.                    :        0.193 s           0.194 s
  | Total energy evaluation                    :        0.002 s           0.003 s

  Partial memory accounting:
  | Current value for overall tracked memory usage:
  |   Minimum:       13.567 MB (on task  0)
  |   Maximum:       13.928 MB (on task  1)
  |   Average:       13.729 MB
  | Peak value for overall tracked memory usage:
  |   Minimum:       38.954 MB (on task 33 after allocating d_wave)
  |   Maximum:       42.697 MB (on task  2 after allocating d_wave)
  |   Average:       40.531 MB
  | Largest tracked array allocation so far:
  |   Minimum:        7.312 MB (hamiltonian_shell on task 33)
  |   Maximum:        8.866 MB (hamiltonian_shell on task  2)
  |   Average:        7.953 MB
  Note:  These values currently only include a subset of arrays which are explicitly tracked.
  The "true" memory usage will be greater.
------------------------------------------------------------
  Removing unitary transformations (pure translations, rotations) from forces on atoms.
  Atomic forces before filtering:
  | Net force on center of mass :   0.356101E-06  0.187371E-06 -0.243247E-06 eV/A
  Atomic forces after filtering:
  | Net force on center of mass :   0.510424E-21 -0.871124E-19  0.217781E-19 eV/A

  Energy and forces in a compact form:
  | Total energy uncorrected      :         -0.127349494934501E+06 eV
  | Total energy corrected        :         -0.127349494934501E+06 eV  <-- do not rely on this value for anything but (periodic) metals
  | Electronic free energy        :         -0.127349494934501E+06 eV
  Total atomic forces (unitary forces cleaned) [eV/Ang]:
  |    1          0.890285226000124E-08         -0.151998544381706E-07         -0.322495412159477E-06
  |    2          0.342513548653850E-07         -0.132400510457963E-07         -0.401896518264018E-06
  |    3          0.576026632636912E-08         -0.140082091415754E-07          0.684672507698990E-06
  |    4         -0.134341935386193E-05          0.256917880346597E-07         -0.507709403203142E-05
  |    5         -0.701376849517944E-06          0.204604754648287E-06         -0.782873880759460E-05
  |    6         -0.126689540637716E-05         -0.320028281621919E-06          0.134360615958299E-04
  |    7          0.495764110909359E-06          0.526573605020614E-03         -0.175353530764443E-03
  |    8          0.524700416511691E-06         -0.526429705308724E-03          0.172897721643548E-03
  |    9          0.628208988300171E-06          0.527233004810539E-03         -0.183843215139776E-03
  |   10          0.891210055944006E-06         -0.526885813928086E-03          0.180601085632918E-03
  |   11          0.450522187018886E-06          0.526737340910195E-03         -0.176256765033600E-03
  |   12          0.272371377621162E-06         -0.527096251650974E-03          0.181464194327874E-03

  ------------------------------------ 
  Start decomposition of the XC Energy 
  ------------------------------------ 
  X and C from original XC functional choice 
  Hartree-Fock Energy :          0.000000000 Ha              0.000000000 eV
  X Energy            :       -238.040893769 Ha          -6477.422287083 eV
  C Energy            :         -6.601751746 Ha           -179.642805145 eV
  Total XC Energy     :       -244.642645516 Ha          -6657.065092228 eV
  ------------------------------------ 
  LDA X and C from self-consistent density 
  X Energy LDA        :       -215.593379210 Ha          -5866.594337346 eV
  C Energy LDA        :        -10.981168316 Ha           -298.812793293 eV
  ------------------------------------ 
  End decomposition of the XC Energy 
  ------------------------------------ 

------------------------------------------------------------

------------------------------------------------------------------------------
  Final output of selected total energy values:

  The following output summarizes some interesting total energy values
  at the end of a run (AFTER all relaxation, molecular dynamics, etc.).

  | Total energy of the DFT / Hartree-Fock s.c.f. calculation      :        -127349.494934501 eV
  | Final zero-broadening corrected energy (caution - metals only) :        -127349.494934501 eV
  | For reference only, the value of 1 Hartree used in FHI-aims is :             27.211384500 eV
  | For reference only, the overall average (free atom contribution
  | + realspace contribution) of the electrostatic potential after
  | s.c.f. convergence is                                          :            -18.693884190 eV

  Before relying on these values, please be sure to understand exactly which
  total energy value is referred to by a given number. Different objects may
  all carry the same name 'total energy'. Definitions:

  Total energy of the DFT / Hartree-Fock s.c.f. calculation:
  | Note that this energy does not include ANY quantities calculated after the
  | s.c.f. cycle, in particular not ANY RPA, MP2, etc. many-body perturbation terms.

  Final zero-broadening corrected energy:
  | For metallic systems only, a broadening of the occupation numbers at the Fermi
  | level can be extrapolated back to zero broadening by an electron-gas inspired
  | formula. For all systems that are not real metals, this value can be
  | meaningless and should be avoided.

------------------------------------------------------------------------------
  Methods described in the following list of references were used in this FHI-aims run.
  If you publish the results, please make sure to cite these reference if they apply.
  FHI-aims is an academic code, and for our developers (often, Ph.D. students
  and postdocs), scientific credit in the community is essential.
  Thank you for helping us!

  For any use of FHI-aims, please cite:

    Volker Blum, Ralf Gehrke, Felix Hanke, Paula Havu, Ville Havu,
    Xinguo Ren, Karsten Reuter, and Matthias Scheffler
    'Ab initio molecular simulations with numeric atom-centered orbitals'
    Computer Physics Communications 180, 2175-2196 (2009)
    http://dx.doi.org/10.1016/j.cpc.2009.06.022


  The provided symmetry information was generated with SPGlib:

    Atsushi Togo, Yusuke Seto, Dimitar Pashov
    SPGlib 1.7.3 obtained from http://spglib.sourceforge.net
    Copyright (C) 2008 Atsushi Togo


 DFT+U infrastructure was used in your run
 please cite:

 Matthias Kick, Karsten Reuter and Harald Oberhofer,
 Intricacies Of DFT+U, not only in a Numeric Atom Centered Orbital Framework

 Journal of Chemical Theory and Computation
 https://


  The ELSI infrastructure was used in your run to solve the Kohn-Sham electronic structure.
  Please check out http://elsi-interchange.org to learn more.
  If scalability is important for your project, please acknowledge ELSI by citing:

    V. W-z. Yu, F. Corsetti, A. Garcia, W. P. Huhn, M. Jacquelin, W. Jia,
    B. Lange, L. Lin, J. Lu, W. Mi, A. Seifitokaldani, A. Vazquez-Mayagoitia,
    C. Yang, H. Yang, and V. Blum
    'ELSI: A unified software interface for Kohn-Sham electronic structure solvers'
    Computer Physics Communications 222, 267-285 (2018).
    http://dx.doi.org/10.1016/j.cpc.2017.09.007


  For the real-space grid partitioning and parallelization used in this calculation, please cite:

    Ville Havu, Volker Blum, Paula Havu, and Matthias Scheffler,
    'Efficient O(N) integration for all-electron electronic structure calculation'
    'using numerically tabulated basis functions'
    Journal of Computational Physics 228, 8367-8379 (2009).
    http://dx.doi.org/10.1016/j.jcp.2009.08.008

  Of course, there are many other important community references, e.g., those cited in the
  above references. Our list is limited to references that describe implementations in the
  FHI-aims code. The reason is purely practical (length of this list) - please credit others as well.

------------------------------------------------------------
          Leaving FHI-aims.
          Date     :  20250315, Time     :  160547.684

          Computational steps:
          | Number of self-consistency cycles          :           26
          | Number of SCF (re)initializations          :            1

          Detailed time accounting                     :  max(cpu_time)    wall_clock(cpu1)
          | Total time                                 :       65.864 s          66.254 s
          | Preparation time                           :        0.555 s           0.556 s
          | Boundary condition initalization           :        0.263 s           0.264 s
          | Grid partitioning                          :        0.060 s           0.060 s
          | Preloading free-atom quantities on grid    :        0.352 s           0.353 s
          | Free-atom superposition energy             :        0.028 s           0.028 s
          | Total time for integrations                :       17.765 s          17.804 s
          | Total time for solution of K.-S. equations :        5.275 s           5.285 s
          | Total time for density & force components  :       31.286 s          31.354 s
          | Total time for mixing & preconditioning    :        4.226 s           4.094 s
          | Total time for Hartree multipole update    :        0.047 s           0.052 s
          | Total time for Hartree multipole sum       :        5.572 s           5.587 s
          | Total time for total energy evaluation     :        0.037 s           0.043 s
          | Total time for scaled ZORA corrections     :        0.000 s           0.000 s

          Partial memory accounting:
          | Residual value for overall tracked memory usage across tasks:     0.000000 MB (should be 0.000000 MB)
          | Peak values for overall tracked memory usage:
          |   Minimum:       38.954 MB (on task 33 after allocating d_wave)
          |   Maximum:       42.697 MB (on task  2 after allocating d_wave)
          |   Average:       40.531 MB
          | Largest tracked array allocation:
          |   Minimum:        7.312 MB (hamiltonian_shell on task 33)
          |   Maximum:        8.866 MB (hamiltonian_shell on task  2)
          |   Average:        7.953 MB
          Note:  These values currently only include a subset of arrays which are explicitly tracked.
          The "true" memory usage will be greater.

          Have a nice day.
------------------------------------------------------------
