------------------------------------------------------------
          Invoking FHI-aims ...

          When using FHI-aims, please cite the following reference:

            Volker Blum, Ralf Gehrke, Felix Hanke, Paula Havu,
            Ville Havu, Xinguo Ren, Karsten Reuter, and Matthias Scheffler,
            'Ab Initio Molecular Simulations with Numeric Atom-Centered Orbitals',
            Computer Physics Communications 180, 2175-2196 (2009)

          In addition, many other developments in FHI-aims are likely important for
          your particular application. If so, please cite them. A partial list of references
          is written at the end of this file. Thank you for giving credit to the authors
          of these developments.

          For general information about FHI-aims please find us at

            https://fhi-aims.org

          Online tutorials can be found at

            https://fhi-aims-club.gitlab.io/tutorials/tutorials-overview/

          For any questions about FHI-aims, please visit our slack channel at

            https://fhi-aims.slack.com

          and our main development and support site at

            https://aims-git.rz-berlin.mpg.de .

          The latter site, in particular, has a wiki to collect information, as well
          as an issue tracker to log discussions, suggest improvements, and report issues
          or bugs. https://aims-git.rz-berlin.mpg.de is also the main development site
          of the project and all new and updated code versions can be obtained there.
          Please send an email to aims-coordinators@fhi-berlin.mpg.de and we will add
          you to these sites. They are for you and everyone is welcome there.

------------------------------------------------------------



  Date     :  20240510, Time     :  101126.350
  Time zero on CPU 1             :   0.579711000000000E+00  s.
  Internal wall clock time zero  :           484567886.350  s.

  FHI-aims created a unique identifier for this run for later identification
  aims_uuid : 8FE778D5-3C2F-4D6C-A3A5-1C6A18453121

  Build configuration of the current instance of FHI-aims
  -------------------------------------------------------
  FHI-aims version      : 230612
  Commit number         : 0c86b0d53
  CMake host system     : Linux-3.10.0-1160.80.1.el7.x86_64
  CMake version         : 3.24.2
  Fortran compiler      : /apps/compilers/intel/2018.2/compilers_and_libraries_2018/linux/mpi/intel64/bin/mpif90 (Intel) version 18.0.2.20180210
  Fortran compiler flags: -O3 -ip -fp-model precise
  C compiler            : /apps/compilers/intel/2018.2/compilers_and_libraries_2018/linux/bin/intel64/icc (Intel) version 18.0.2.20180210
  C compiler flags      : -O3 -ip -fp-model precise -std=gnu99
  HIP compiler          :
  HIP compiler flags    :
  HIP GPU arch          :
  ELPA2 kernel          : AVX2
  Using MPI
  Using ScaLAPACK
  Using LibXC
  Using i-PI
  Using RLSY
  Linking against: /apps/compilers/intel/2018.2/compilers_and_libraries_2018/linux/mkl/lib/intel64/libmkl_intel_lp64.so
                   /apps/compilers/intel/2018.2/compilers_and_libraries_2018/linux/mkl/lib/intel64/libmkl_intel_thread.so
                   /apps/compilers/intel/2018.2/compilers_and_libraries_2018/linux/mkl/lib/intel64/libmkl_core.so
                   /apps/compilers/intel/2018.2/compilers_and_libraries_2018/linux/mkl/lib/intel64/libmkl_blacs_intelmpi_lp64.so
                   /apps/compilers/intel/2018.2/compilers_and_libraries_2018/linux/mkl/lib/intel64/libmkl_scalapack_lp64.so
                   /usr/lib64/libpthread.so

  Using      640 parallel tasks.
  Task        0 on host cca0011 reporting.
  Task        1 on host cca0011 reporting.
  Task        2 on host cca0011 reporting.
  Task        3 on host cca0011 reporting.
  Task        4 on host cca0011 reporting.
  Task        5 on host cca0011 reporting.
  Task        6 on host cca0011 reporting.
  Task        7 on host cca0011 reporting.
  Task        8 on host cca0011 reporting.
  Task        9 on host cca0011 reporting.
  Task       10 on host cca0011 reporting.
  Task       11 on host cca0011 reporting.
  Task       12 on host cca0011 reporting.
  Task       13 on host cca0011 reporting.
  Task       14 on host cca0011 reporting.
  Task       15 on host cca0011 reporting.
  Task       16 on host cca0011 reporting.
  Task       17 on host cca0011 reporting.
  Task       18 on host cca0011 reporting.
  Task       19 on host cca0011 reporting.
  Task       20 on host cca0011 reporting.
  Task       21 on host cca0011 reporting.
  Task       22 on host cca0011 reporting.
  Task       23 on host cca0011 reporting.
  Task       24 on host cca0011 reporting.
  Task       25 on host cca0011 reporting.
  Task       26 on host cca0011 reporting.
  Task       27 on host cca0011 reporting.
  Task       28 on host cca0011 reporting.
  Task       29 on host cca0011 reporting.
  Task       30 on host cca0011 reporting.
  Task       31 on host cca0011 reporting.
  Task       32 on host cca0011 reporting.
  Task       33 on host cca0011 reporting.
  Task       34 on host cca0011 reporting.
  Task       35 on host cca0011 reporting.
  Task       36 on host cca0011 reporting.
  Task       37 on host cca0011 reporting.
  Task       38 on host cca0011 reporting.
  Task       39 on host cca0011 reporting.
  Task       40 on host cca0011 reporting.
  Task       41 on host cca0011 reporting.
  Task       42 on host cca0011 reporting.
  Task       43 on host cca0011 reporting.
  Task       44 on host cca0011 reporting.
  Task       45 on host cca0011 reporting.
  Task       46 on host cca0011 reporting.
  Task       47 on host cca0011 reporting.
  Task       48 on host cca0011 reporting.
  Task       49 on host cca0011 reporting.
  Task       50 on host cca0011 reporting.
  Task       51 on host cca0011 reporting.
  Task       52 on host cca0011 reporting.
  Task       53 on host cca0011 reporting.
  Task       54 on host cca0011 reporting.
  Task       55 on host cca0011 reporting.
  Task       56 on host cca0011 reporting.
  Task       57 on host cca0011 reporting.
  Task       58 on host cca0011 reporting.
  Task       59 on host cca0011 reporting.
  Task       60 on host cca0011 reporting.
  Task       61 on host cca0011 reporting.
  Task       62 on host cca0011 reporting.
  Task       63 on host cca0011 reporting.
  Task       64 on host cca0013 reporting.
  Task       65 on host cca0013 reporting.
  Task       66 on host cca0013 reporting.
  Task       67 on host cca0013 reporting.
  Task       68 on host cca0013 reporting.
  Task       69 on host cca0013 reporting.
  Task       70 on host cca0013 reporting.
  Task       71 on host cca0013 reporting.
  Task       72 on host cca0013 reporting.
  Task       73 on host cca0013 reporting.
  Task       74 on host cca0013 reporting.
  Task       75 on host cca0013 reporting.
  Task       76 on host cca0013 reporting.
  Task       77 on host cca0013 reporting.
  Task       78 on host cca0013 reporting.
  Task       79 on host cca0013 reporting.
  Task       80 on host cca0013 reporting.
  Task       81 on host cca0013 reporting.
  Task       82 on host cca0013 reporting.
  Task       83 on host cca0013 reporting.
  Task       84 on host cca0013 reporting.
  Task       85 on host cca0013 reporting.
  Task       86 on host cca0013 reporting.
  Task       87 on host cca0013 reporting.
  Task       88 on host cca0013 reporting.
  Task       89 on host cca0013 reporting.
  Task       90 on host cca0013 reporting.
  Task       91 on host cca0013 reporting.
  Task       92 on host cca0013 reporting.
  Task       93 on host cca0013 reporting.
  Task       94 on host cca0013 reporting.
  Task       95 on host cca0013 reporting.
  Task       96 on host cca0013 reporting.
  Task       97 on host cca0013 reporting.
  Task       98 on host cca0013 reporting.
  Task       99 on host cca0013 reporting.
  Task      100 on host cca0013 reporting.
  Task      101 on host cca0013 reporting.
  Task      102 on host cca0013 reporting.
  Task      103 on host cca0013 reporting.
  Task      104 on host cca0013 reporting.
  Task      105 on host cca0013 reporting.
  Task      106 on host cca0013 reporting.
  Task      107 on host cca0013 reporting.
  Task      108 on host cca0013 reporting.
  Task      109 on host cca0013 reporting.
  Task      110 on host cca0013 reporting.
  Task      111 on host cca0013 reporting.
  Task      112 on host cca0013 reporting.
  Task      113 on host cca0013 reporting.
  Task      114 on host cca0013 reporting.
  Task      115 on host cca0013 reporting.
  Task      116 on host cca0013 reporting.
  Task      117 on host cca0013 reporting.
  Task      118 on host cca0013 reporting.
  Task      119 on host cca0013 reporting.
  Task      120 on host cca0013 reporting.
  Task      121 on host cca0013 reporting.
  Task      122 on host cca0013 reporting.
  Task      123 on host cca0013 reporting.
  Task      124 on host cca0013 reporting.
  Task      125 on host cca0013 reporting.
  Task      126 on host cca0013 reporting.
  Task      127 on host cca0013 reporting.
  Task      128 on host cca0017 reporting.
  Task      129 on host cca0017 reporting.
  Task      130 on host cca0017 reporting.
  Task      131 on host cca0017 reporting.
  Task      132 on host cca0017 reporting.
  Task      133 on host cca0017 reporting.
  Task      134 on host cca0017 reporting.
  Task      135 on host cca0017 reporting.
  Task      136 on host cca0017 reporting.
  Task      137 on host cca0017 reporting.
  Task      138 on host cca0017 reporting.
  Task      139 on host cca0017 reporting.
  Task      140 on host cca0017 reporting.
  Task      141 on host cca0017 reporting.
  Task      142 on host cca0017 reporting.
  Task      143 on host cca0017 reporting.
  Task      144 on host cca0017 reporting.
  Task      145 on host cca0017 reporting.
  Task      146 on host cca0017 reporting.
  Task      147 on host cca0017 reporting.
  Task      148 on host cca0017 reporting.
  Task      149 on host cca0017 reporting.
  Task      150 on host cca0017 reporting.
  Task      151 on host cca0017 reporting.
  Task      152 on host cca0017 reporting.
  Task      153 on host cca0017 reporting.
  Task      154 on host cca0017 reporting.
  Task      155 on host cca0017 reporting.
  Task      156 on host cca0017 reporting.
  Task      157 on host cca0017 reporting.
  Task      158 on host cca0017 reporting.
  Task      159 on host cca0017 reporting.
  Task      160 on host cca0017 reporting.
  Task      161 on host cca0017 reporting.
  Task      162 on host cca0017 reporting.
  Task      163 on host cca0017 reporting.
  Task      164 on host cca0017 reporting.
  Task      165 on host cca0017 reporting.
  Task      166 on host cca0017 reporting.
  Task      167 on host cca0017 reporting.
  Task      168 on host cca0017 reporting.
  Task      169 on host cca0017 reporting.
  Task      170 on host cca0017 reporting.
  Task      171 on host cca0017 reporting.
  Task      172 on host cca0017 reporting.
  Task      173 on host cca0017 reporting.
  Task      174 on host cca0017 reporting.
  Task      175 on host cca0017 reporting.
  Task      176 on host cca0017 reporting.
  Task      177 on host cca0017 reporting.
  Task      178 on host cca0017 reporting.
  Task      179 on host cca0017 reporting.
  Task      180 on host cca0017 reporting.
  Task      181 on host cca0017 reporting.
  Task      182 on host cca0017 reporting.
  Task      183 on host cca0017 reporting.
  Task      184 on host cca0017 reporting.
  Task      185 on host cca0017 reporting.
  Task      186 on host cca0017 reporting.
  Task      187 on host cca0017 reporting.
  Task      188 on host cca0017 reporting.
  Task      189 on host cca0017 reporting.
  Task      190 on host cca0017 reporting.
  Task      191 on host cca0017 reporting.
  Task      192 on host cca0030 reporting.
  Task      193 on host cca0030 reporting.
  Task      194 on host cca0030 reporting.
  Task      195 on host cca0030 reporting.
  Task      196 on host cca0030 reporting.
  Task      197 on host cca0030 reporting.
  Task      198 on host cca0030 reporting.
  Task      199 on host cca0030 reporting.
  Task      200 on host cca0030 reporting.
  Task      201 on host cca0030 reporting.
  Task      202 on host cca0030 reporting.
  Task      203 on host cca0030 reporting.
  Task      204 on host cca0030 reporting.
  Task      205 on host cca0030 reporting.
  Task      206 on host cca0030 reporting.
  Task      207 on host cca0030 reporting.
  Task      208 on host cca0030 reporting.
  Task      209 on host cca0030 reporting.
  Task      210 on host cca0030 reporting.
  Task      211 on host cca0030 reporting.
  Task      212 on host cca0030 reporting.
  Task      213 on host cca0030 reporting.
  Task      214 on host cca0030 reporting.
  Task      215 on host cca0030 reporting.
  Task      216 on host cca0030 reporting.
  Task      217 on host cca0030 reporting.
  Task      218 on host cca0030 reporting.
  Task      219 on host cca0030 reporting.
  Task      220 on host cca0030 reporting.
  Task      221 on host cca0030 reporting.
  Task      222 on host cca0030 reporting.
  Task      223 on host cca0030 reporting.
  Task      224 on host cca0030 reporting.
  Task      225 on host cca0030 reporting.
  Task      226 on host cca0030 reporting.
  Task      227 on host cca0030 reporting.
  Task      228 on host cca0030 reporting.
  Task      229 on host cca0030 reporting.
  Task      230 on host cca0030 reporting.
  Task      231 on host cca0030 reporting.
  Task      232 on host cca0030 reporting.
  Task      233 on host cca0030 reporting.
  Task      234 on host cca0030 reporting.
  Task      235 on host cca0030 reporting.
  Task      236 on host cca0030 reporting.
  Task      237 on host cca0030 reporting.
  Task      238 on host cca0030 reporting.
  Task      239 on host cca0030 reporting.
  Task      240 on host cca0030 reporting.
  Task      241 on host cca0030 reporting.
  Task      242 on host cca0030 reporting.
  Task      243 on host cca0030 reporting.
  Task      244 on host cca0030 reporting.
  Task      245 on host cca0030 reporting.
  Task      246 on host cca0030 reporting.
  Task      247 on host cca0030 reporting.
  Task      248 on host cca0030 reporting.
  Task      249 on host cca0030 reporting.
  Task      250 on host cca0030 reporting.
  Task      251 on host cca0030 reporting.
  Task      252 on host cca0030 reporting.
  Task      253 on host cca0030 reporting.
  Task      254 on host cca0030 reporting.
  Task      255 on host cca0030 reporting.
  Task      256 on host cca0032 reporting.
  Task      257 on host cca0032 reporting.
  Task      258 on host cca0032 reporting.
  Task      259 on host cca0032 reporting.
  Task      260 on host cca0032 reporting.
  Task      261 on host cca0032 reporting.
  Task      262 on host cca0032 reporting.
  Task      263 on host cca0032 reporting.
  Task      264 on host cca0032 reporting.
  Task      265 on host cca0032 reporting.
  Task      266 on host cca0032 reporting.
  Task      267 on host cca0032 reporting.
  Task      268 on host cca0032 reporting.
  Task      269 on host cca0032 reporting.
  Task      270 on host cca0032 reporting.
  Task      271 on host cca0032 reporting.
  Task      272 on host cca0032 reporting.
  Task      273 on host cca0032 reporting.
  Task      274 on host cca0032 reporting.
  Task      275 on host cca0032 reporting.
  Task      276 on host cca0032 reporting.
  Task      277 on host cca0032 reporting.
  Task      278 on host cca0032 reporting.
  Task      279 on host cca0032 reporting.
  Task      280 on host cca0032 reporting.
  Task      281 on host cca0032 reporting.
  Task      282 on host cca0032 reporting.
  Task      283 on host cca0032 reporting.
  Task      284 on host cca0032 reporting.
  Task      285 on host cca0032 reporting.
  Task      286 on host cca0032 reporting.
  Task      287 on host cca0032 reporting.
  Task      288 on host cca0032 reporting.
  Task      289 on host cca0032 reporting.
  Task      290 on host cca0032 reporting.
  Task      291 on host cca0032 reporting.
  Task      292 on host cca0032 reporting.
  Task      293 on host cca0032 reporting.
  Task      294 on host cca0032 reporting.
  Task      295 on host cca0032 reporting.
  Task      296 on host cca0032 reporting.
  Task      297 on host cca0032 reporting.
  Task      298 on host cca0032 reporting.
  Task      299 on host cca0032 reporting.
  Task      300 on host cca0032 reporting.
  Task      301 on host cca0032 reporting.
  Task      302 on host cca0032 reporting.
  Task      303 on host cca0032 reporting.
  Task      304 on host cca0032 reporting.
  Task      305 on host cca0032 reporting.
  Task      306 on host cca0032 reporting.
  Task      307 on host cca0032 reporting.
  Task      308 on host cca0032 reporting.
  Task      309 on host cca0032 reporting.
  Task      310 on host cca0032 reporting.
  Task      311 on host cca0032 reporting.
  Task      312 on host cca0032 reporting.
  Task      313 on host cca0032 reporting.
  Task      314 on host cca0032 reporting.
  Task      315 on host cca0032 reporting.
  Task      316 on host cca0032 reporting.
  Task      317 on host cca0032 reporting.
  Task      318 on host cca0032 reporting.
  Task      319 on host cca0032 reporting.
  Task      320 on host cca0037 reporting.
  Task      321 on host cca0037 reporting.
  Task      322 on host cca0037 reporting.
  Task      323 on host cca0037 reporting.
  Task      324 on host cca0037 reporting.
  Task      325 on host cca0037 reporting.
  Task      326 on host cca0037 reporting.
  Task      327 on host cca0037 reporting.
  Task      328 on host cca0037 reporting.
  Task      329 on host cca0037 reporting.
  Task      330 on host cca0037 reporting.
  Task      331 on host cca0037 reporting.
  Task      332 on host cca0037 reporting.
  Task      333 on host cca0037 reporting.
  Task      334 on host cca0037 reporting.
  Task      335 on host cca0037 reporting.
  Task      336 on host cca0037 reporting.
  Task      337 on host cca0037 reporting.
  Task      338 on host cca0037 reporting.
  Task      339 on host cca0037 reporting.
  Task      340 on host cca0037 reporting.
  Task      341 on host cca0037 reporting.
  Task      342 on host cca0037 reporting.
  Task      343 on host cca0037 reporting.
  Task      344 on host cca0037 reporting.
  Task      345 on host cca0037 reporting.
  Task      346 on host cca0037 reporting.
  Task      347 on host cca0037 reporting.
  Task      348 on host cca0037 reporting.
  Task      349 on host cca0037 reporting.
  Task      350 on host cca0037 reporting.
  Task      351 on host cca0037 reporting.
  Task      352 on host cca0037 reporting.
  Task      353 on host cca0037 reporting.
  Task      354 on host cca0037 reporting.
  Task      355 on host cca0037 reporting.
  Task      356 on host cca0037 reporting.
  Task      357 on host cca0037 reporting.
  Task      358 on host cca0037 reporting.
  Task      359 on host cca0037 reporting.
  Task      360 on host cca0037 reporting.
  Task      361 on host cca0037 reporting.
  Task      362 on host cca0037 reporting.
  Task      363 on host cca0037 reporting.
  Task      364 on host cca0037 reporting.
  Task      365 on host cca0037 reporting.
  Task      366 on host cca0037 reporting.
  Task      367 on host cca0037 reporting.
  Task      368 on host cca0037 reporting.
  Task      369 on host cca0037 reporting.
  Task      370 on host cca0037 reporting.
  Task      371 on host cca0037 reporting.
  Task      372 on host cca0037 reporting.
  Task      373 on host cca0037 reporting.
  Task      374 on host cca0037 reporting.
  Task      375 on host cca0037 reporting.
  Task      376 on host cca0037 reporting.
  Task      377 on host cca0037 reporting.
  Task      378 on host cca0037 reporting.
  Task      379 on host cca0037 reporting.
  Task      380 on host cca0037 reporting.
  Task      381 on host cca0037 reporting.
  Task      382 on host cca0037 reporting.
  Task      383 on host cca0037 reporting.
  Task      384 on host cca0038 reporting.
  Task      385 on host cca0038 reporting.
  Task      386 on host cca0038 reporting.
  Task      387 on host cca0038 reporting.
  Task      388 on host cca0038 reporting.
  Task      389 on host cca0038 reporting.
  Task      390 on host cca0038 reporting.
  Task      391 on host cca0038 reporting.
  Task      392 on host cca0038 reporting.
  Task      393 on host cca0038 reporting.
  Task      394 on host cca0038 reporting.
  Task      395 on host cca0038 reporting.
  Task      396 on host cca0038 reporting.
  Task      397 on host cca0038 reporting.
  Task      398 on host cca0038 reporting.
  Task      399 on host cca0038 reporting.
  Task      400 on host cca0038 reporting.
  Task      401 on host cca0038 reporting.
  Task      402 on host cca0038 reporting.
  Task      403 on host cca0038 reporting.
  Task      404 on host cca0038 reporting.
  Task      405 on host cca0038 reporting.
  Task      406 on host cca0038 reporting.
  Task      407 on host cca0038 reporting.
  Task      408 on host cca0038 reporting.
  Task      409 on host cca0038 reporting.
  Task      410 on host cca0038 reporting.
  Task      411 on host cca0038 reporting.
  Task      412 on host cca0038 reporting.
  Task      413 on host cca0038 reporting.
  Task      414 on host cca0038 reporting.
  Task      415 on host cca0038 reporting.
  Task      416 on host cca0038 reporting.
  Task      417 on host cca0038 reporting.
  Task      418 on host cca0038 reporting.
  Task      419 on host cca0038 reporting.
  Task      420 on host cca0038 reporting.
  Task      421 on host cca0038 reporting.
  Task      422 on host cca0038 reporting.
  Task      423 on host cca0038 reporting.
  Task      424 on host cca0038 reporting.
  Task      425 on host cca0038 reporting.
  Task      426 on host cca0038 reporting.
  Task      427 on host cca0038 reporting.
  Task      428 on host cca0038 reporting.
  Task      429 on host cca0038 reporting.
  Task      430 on host cca0038 reporting.
  Task      431 on host cca0038 reporting.
  Task      432 on host cca0038 reporting.
  Task      433 on host cca0038 reporting.
  Task      434 on host cca0038 reporting.
  Task      435 on host cca0038 reporting.
  Task      436 on host cca0038 reporting.
  Task      437 on host cca0038 reporting.
  Task      438 on host cca0038 reporting.
  Task      439 on host cca0038 reporting.
  Task      440 on host cca0038 reporting.
  Task      441 on host cca0038 reporting.
  Task      442 on host cca0038 reporting.
  Task      443 on host cca0038 reporting.
  Task      444 on host cca0038 reporting.
  Task      445 on host cca0038 reporting.
  Task      446 on host cca0038 reporting.
  Task      447 on host cca0038 reporting.
  Task      448 on host cca0044 reporting.
  Task      449 on host cca0044 reporting.
  Task      450 on host cca0044 reporting.
  Task      451 on host cca0044 reporting.
  Task      452 on host cca0044 reporting.
  Task      453 on host cca0044 reporting.
  Task      454 on host cca0044 reporting.
  Task      455 on host cca0044 reporting.
  Task      456 on host cca0044 reporting.
  Task      457 on host cca0044 reporting.
  Task      458 on host cca0044 reporting.
  Task      459 on host cca0044 reporting.
  Task      460 on host cca0044 reporting.
  Task      461 on host cca0044 reporting.
  Task      462 on host cca0044 reporting.
  Task      463 on host cca0044 reporting.
  Task      464 on host cca0044 reporting.
  Task      465 on host cca0044 reporting.
  Task      466 on host cca0044 reporting.
  Task      467 on host cca0044 reporting.
  Task      468 on host cca0044 reporting.
  Task      469 on host cca0044 reporting.
  Task      470 on host cca0044 reporting.
  Task      471 on host cca0044 reporting.
  Task      472 on host cca0044 reporting.
  Task      473 on host cca0044 reporting.
  Task      474 on host cca0044 reporting.
  Task      475 on host cca0044 reporting.
  Task      476 on host cca0044 reporting.
  Task      477 on host cca0044 reporting.
  Task      478 on host cca0044 reporting.
  Task      479 on host cca0044 reporting.
  Task      480 on host cca0044 reporting.
  Task      481 on host cca0044 reporting.
  Task      482 on host cca0044 reporting.
  Task      483 on host cca0044 reporting.
  Task      484 on host cca0044 reporting.
  Task      485 on host cca0044 reporting.
  Task      486 on host cca0044 reporting.
  Task      487 on host cca0044 reporting.
  Task      488 on host cca0044 reporting.
  Task      489 on host cca0044 reporting.
  Task      490 on host cca0044 reporting.
  Task      491 on host cca0044 reporting.
  Task      492 on host cca0044 reporting.
  Task      493 on host cca0044 reporting.
  Task      494 on host cca0044 reporting.
  Task      495 on host cca0044 reporting.
  Task      496 on host cca0044 reporting.
  Task      497 on host cca0044 reporting.
  Task      498 on host cca0044 reporting.
  Task      499 on host cca0044 reporting.
  Task      500 on host cca0044 reporting.
  Task      501 on host cca0044 reporting.
  Task      502 on host cca0044 reporting.
  Task      503 on host cca0044 reporting.
  Task      504 on host cca0044 reporting.
  Task      505 on host cca0044 reporting.
  Task      506 on host cca0044 reporting.
  Task      507 on host cca0044 reporting.
  Task      508 on host cca0044 reporting.
  Task      509 on host cca0044 reporting.
  Task      510 on host cca0044 reporting.
  Task      511 on host cca0044 reporting.
  Task      512 on host cca0049 reporting.
  Task      513 on host cca0049 reporting.
  Task      514 on host cca0049 reporting.
  Task      515 on host cca0049 reporting.
  Task      516 on host cca0049 reporting.
  Task      517 on host cca0049 reporting.
  Task      518 on host cca0049 reporting.
  Task      519 on host cca0049 reporting.
  Task      520 on host cca0049 reporting.
  Task      521 on host cca0049 reporting.
  Task      522 on host cca0049 reporting.
  Task      523 on host cca0049 reporting.
  Task      524 on host cca0049 reporting.
  Task      525 on host cca0049 reporting.
  Task      526 on host cca0049 reporting.
  Task      527 on host cca0049 reporting.
  Task      528 on host cca0049 reporting.
  Task      529 on host cca0049 reporting.
  Task      530 on host cca0049 reporting.
  Task      531 on host cca0049 reporting.
  Task      532 on host cca0049 reporting.
  Task      533 on host cca0049 reporting.
  Task      534 on host cca0049 reporting.
  Task      535 on host cca0049 reporting.
  Task      536 on host cca0049 reporting.
  Task      537 on host cca0049 reporting.
  Task      538 on host cca0049 reporting.
  Task      539 on host cca0049 reporting.
  Task      540 on host cca0049 reporting.
  Task      541 on host cca0049 reporting.
  Task      542 on host cca0049 reporting.
  Task      543 on host cca0049 reporting.
  Task      544 on host cca0049 reporting.
  Task      545 on host cca0049 reporting.
  Task      546 on host cca0049 reporting.
  Task      547 on host cca0049 reporting.
  Task      548 on host cca0049 reporting.
  Task      549 on host cca0049 reporting.
  Task      550 on host cca0049 reporting.
  Task      551 on host cca0049 reporting.
  Task      552 on host cca0049 reporting.
  Task      553 on host cca0049 reporting.
  Task      554 on host cca0049 reporting.
  Task      555 on host cca0049 reporting.
  Task      556 on host cca0049 reporting.
  Task      557 on host cca0049 reporting.
  Task      558 on host cca0049 reporting.
  Task      559 on host cca0049 reporting.
  Task      560 on host cca0049 reporting.
  Task      561 on host cca0049 reporting.
  Task      562 on host cca0049 reporting.
  Task      563 on host cca0049 reporting.
  Task      564 on host cca0049 reporting.
  Task      565 on host cca0049 reporting.
  Task      566 on host cca0049 reporting.
  Task      567 on host cca0049 reporting.
  Task      568 on host cca0049 reporting.
  Task      569 on host cca0049 reporting.
  Task      570 on host cca0049 reporting.
  Task      571 on host cca0049 reporting.
  Task      572 on host cca0049 reporting.
  Task      573 on host cca0049 reporting.
  Task      574 on host cca0049 reporting.
  Task      575 on host cca0049 reporting.
  Task      576 on host cca0060 reporting.
  Task      577 on host cca0060 reporting.
  Task      578 on host cca0060 reporting.
  Task      579 on host cca0060 reporting.
  Task      580 on host cca0060 reporting.
  Task      581 on host cca0060 reporting.
  Task      582 on host cca0060 reporting.
  Task      583 on host cca0060 reporting.
  Task      584 on host cca0060 reporting.
  Task      585 on host cca0060 reporting.
  Task      586 on host cca0060 reporting.
  Task      587 on host cca0060 reporting.
  Task      588 on host cca0060 reporting.
  Task      589 on host cca0060 reporting.
  Task      590 on host cca0060 reporting.
  Task      591 on host cca0060 reporting.
  Task      592 on host cca0060 reporting.
  Task      593 on host cca0060 reporting.
  Task      594 on host cca0060 reporting.
  Task      595 on host cca0060 reporting.
  Task      596 on host cca0060 reporting.
  Task      597 on host cca0060 reporting.
  Task      598 on host cca0060 reporting.
  Task      599 on host cca0060 reporting.
  Task      600 on host cca0060 reporting.
  Task      601 on host cca0060 reporting.
  Task      602 on host cca0060 reporting.
  Task      603 on host cca0060 reporting.
  Task      604 on host cca0060 reporting.
  Task      605 on host cca0060 reporting.
  Task      606 on host cca0060 reporting.
  Task      607 on host cca0060 reporting.
  Task      608 on host cca0060 reporting.
  Task      609 on host cca0060 reporting.
  Task      610 on host cca0060 reporting.
  Task      611 on host cca0060 reporting.
  Task      612 on host cca0060 reporting.
  Task      613 on host cca0060 reporting.
  Task      614 on host cca0060 reporting.
  Task      615 on host cca0060 reporting.
  Task      616 on host cca0060 reporting.
  Task      617 on host cca0060 reporting.
  Task      618 on host cca0060 reporting.
  Task      619 on host cca0060 reporting.
  Task      620 on host cca0060 reporting.
  Task      621 on host cca0060 reporting.
  Task      622 on host cca0060 reporting.
  Task      623 on host cca0060 reporting.
  Task      624 on host cca0060 reporting.
  Task      625 on host cca0060 reporting.
  Task      626 on host cca0060 reporting.
  Task      627 on host cca0060 reporting.
  Task      628 on host cca0060 reporting.
  Task      629 on host cca0060 reporting.
  Task      630 on host cca0060 reporting.
  Task      631 on host cca0060 reporting.
  Task      632 on host cca0060 reporting.
  Task      633 on host cca0060 reporting.
  Task      634 on host cca0060 reporting.
  Task      635 on host cca0060 reporting.
  Task      636 on host cca0060 reporting.
  Task      637 on host cca0060 reporting.
  Task      638 on host cca0060 reporting.
  Task      639 on host cca0060 reporting.

  Obtaining array dimensions for all initial allocations:
  
  -----------------------------------------------------------------------
  Parsing control.in (first pass over file, find array dimensions only).
  The contents of control.in will be repeated verbatim below
  unless switched off by setting 'verbatim_writeout .false.' .
  in the first line of control.in .
  -----------------------------------------------------------------------
  
  #===============================================================================
  # FHI-aims file: ./control.in
  # Created using the Atomic Simulation Environment (ASE)
  # Fri May 10 10:11:23 2024
  #===============================================================================
  spin                               none
  relativistic                       atomic_zora scalar
  compute_forces                     .true.
  xc                                 pbe0
  k_grid                             8 8 8
  occupation_type                    gaussian 0.1
  plus_u_petukhov_mixing             1
  plus_u_matrix_control              True
  sc_accuracy_etot                   1e-06
  sc_accuracy_eev                    0.001
  sc_accuracy_rho                    1e-06
  sc_accuracy_forces                 0.0001
  #===============================================================================
  
  ################################################################################
  #
  #  FHI-aims code project
  #  VB, Fritz-Haber Institut, 2009
  #
  #  Suggested "light" defaults for Ce atom (to be pasted into control.in file)
  #  Be sure to double-check any results obtained with these settings for post-processing,
  #  e.g., with the "tight" defaults and larger basis sets.
  #
  ################################################################################
    species          Ce
  #     global species definitions
      nucleus        58
      mass           140.116
  #
      l_hartree      4
  #
      cut_pot        4.0  1.5  1.0
      basis_dep_cutoff    1e-4
  #
      radial_base    66  5.5
      radial_multiplier  1
      angular_grids specified
        division   0.1028  110
        division   0.1495  194
        division   0.8411  302
  #      division   0.9338  434
  #      division   0.9935  590
  #      division   1.0783  770
  #      division   3.5126  974
  #      outer_grid  974
        outer_grid  302
  ################################################################################
  #
  #  Definition of "minimal" basis
  #
  ################################################################################
  #     valence basis states
      valence      6  s   2.
      valence      5  p   6.
      valence      5  d   1.
      valence      4  f   1.
  #     ion occupancy
      ion_occ      6  s   1.
      ion_occ      5  p   6.
      ion_occ      5  d   0.
      ion_occ      4  f   0.
  ################################################################################
  #
  #  Suggested additional basis functions. For production calculations,
  #  uncomment them one after another (the most important basis functions are
  #  listed first).
  #
  #  Constructed for dimers: 2.0, 2.375, 2.875, 3.5, 4.5 AA
  #
  ################################################################################
  #  "First tier" - improvements: -540.10 meV to -12.77 meV
       hydro 4 d 4.8
       hydro 5 g 11.2
       hydro 4 f 7.6
       hydro 2 p 1.8
       hydro 3 s 2.7
  #  "Second tier" - improvements: -48.86 meV to -0.65 meV
  #     hydro 6 h 14.8
  #     hydro 4 f 5.2
  #     hydro 3 d 3
  #     hydro 3 d 2.2
  #     hydro 5 g 11.6
  #     hydro 3 p 2.8
  #     ionic 6 s auto
  #  "Third tier" - max. impr. -2.32 meV, min. impr. -0.31 meV
  #     hydro 6 h 15.2
  #     hydro 4 f 8.2
  #     hydro 5 g 30
  #     hydro 6 d 16.4
  #     hydro 5 f 15.6
  #     hydro 5 p 17.6
  #     hydro 4 s 7.2
  #  Fourth tier  - max. impr. -0.36 meV, min. impr. -0.17 meV
  #     hydro 5 g 20
  #     hydro 4 f 16.4
  #     hydro 6 d 20
  #     hydro 6 p 9.2
  #     hydro 1 s 0.85
  #     hydro 6 h 14
  plus_u 4 f 0
  ################################################################################
  #
  #  FHI-aims code project
  #  VB, Fritz-Haber Institut, 2009
  #
  #  Suggested "light" defaults for O atom (to be pasted into control.in file)
  #  Be sure to double-check any results obtained with these settings for post-processing,
  #  e.g., with the "tight" defaults and larger basis sets.
  #
  ################################################################################
    species        O
  #     global species definitions
      nucleus             8
      mass                15.9994
  #
      l_hartree           4
  #
      cut_pot             3.5  1.5  1.0
      basis_dep_cutoff    1e-4
  #
      radial_base         36 5.0
      radial_multiplier   1
       angular_grids specified
        division   0.2659   50
        division   0.4451  110
        division   0.6052  194
        division   0.7543  302
  #      division   0.8014  434
  #      division   0.8507  590
  #      division   0.8762  770
  #      division   0.9023  974
  #      division   1.2339 1202
  #      outer_grid 974
        outer_grid 302
  ################################################################################
  #
  #  Definition of "minimal" basis
  #
  ################################################################################
  #     valence basis states
      valence      2  s   2.
      valence      2  p   4.
  #     ion occupancy
      ion_occ      2  s   1.
      ion_occ      2  p   3.
  ################################################################################
  #
  #  Suggested additional basis functions. For production calculations,
  #  uncomment them one after another (the most important basis functions are
  #  listed first).
  #
  #  Constructed for dimers: 1.0 A, 1.208 A, 1.5 A, 2.0 A, 3.0 A
  #
  ################################################################################
  #  "First tier" - improvements: -699.05 meV to -159.38 meV
       hydro 2 p 1.8
       hydro 3 d 7.6
       hydro 3 s 6.4
  #  "Second tier" - improvements: -49.91 meV to -5.39 meV
  #     hydro 4 f 11.6
  #     hydro 3 p 6.2
  #     hydro 3 d 5.6
  #     hydro 5 g 17.6
  #     hydro 1 s 0.75
  #  "Third tier" - improvements: -2.83 meV to -0.50 meV
  #     ionic 2 p auto
  #     hydro 4 f 10.8
  #     hydro 4 d 4.7
  #     hydro 2 s 6.8
  #  "Fourth tier" - improvements: -0.40 meV to -0.12 meV
  #     hydro 3 p 5
  #     hydro 3 s 3.3
  #     hydro 5 g 15.6
  #     hydro 4 f 17.6
  #     hydro 4 d 14
  # Further basis functions - -0.08 meV and below
  #     hydro 3 s 2.1
  #     hydro 4 d 11.6
  #     hydro 3 p 16
  #     hydro 2 s 17.2
  plus_u 2 p 0
  
  -----------------------------------------------------------------------
  Completed first pass over input file control.in .
  -----------------------------------------------------------------------
  
  
  -----------------------------------------------------------------------
  Parsing geometry.in (first pass over file, find array dimensions only).
  The contents of geometry.in will be repeated verbatim below
  unless switched off by setting 'verbatim_writeout .false.' .
  in the first line of geometry.in .
  -----------------------------------------------------------------------
  
  #=======================================================
  # FHI-aims file: ./geometry.in
  # Created using the Atomic Simulation Environment (ASE)
  # Fri May 10 10:11:23 2024
  #=======================================================
  lattice_vector 5.4177999999999997 0.0000000000000000 0.0000000000000000
  lattice_vector 0.0000000000000000 5.4177999999999997 0.0000000000000000
  lattice_vector 0.0000000000000000 0.0000000000000000 5.4177999999999997
  atom_frac 0.0000000000000000 0.0000000000000000 0.0000000000000000 Ce
  atom_frac 0.0000000000000000 0.5000000000000000 0.5000000000000000 Ce
  atom_frac 0.5000000000000000 0.0000000000000000 0.5000000000000000 Ce
  atom_frac 0.5000000000000000 0.5000000000000000 0.0000000000000000 Ce
  atom_frac 0.2500000000000000 0.2500000000000000 0.7500000000000000 O
  atom_frac 0.2500000000000000 0.7500000000000000 0.2500000000000000 O
  atom_frac 0.7500000000000000 0.2500000000000000 0.2500000000000000 O
  atom_frac 0.7500000000000000 0.7500000000000000 0.7500000000000000 O
  atom_frac 0.7500000000000000 0.7500000000000000 0.2500000000000000 O
  atom_frac 0.7500000000000000 0.2500000000000000 0.7500000000000000 O
  atom_frac 0.2500000000000000 0.7500000000000000 0.7500000000000000 O
  atom_frac 0.2500000000000000 0.2500000000000000 0.2500000000000000 O
  
  -----------------------------------------------------------------------
  Completed first pass over input file geometry.in .
  -----------------------------------------------------------------------
  

  Basic array size parameters:
  | Number of species                 :        2
  | Number of atoms                   :       12
  | Number of lattice vectors         :        3
  | Max. basis fn. angular momentum   :        4
  | Max. atomic/ionic basis occupied n:        6
  | Max. number of basis fn. types    :        2
  | Max. radial fns per species/type  :       14
  | Max. logarithmic grid size        :     1463
  | Max. radial integration grid size :       66
  | Max. angular integration grid size:      302
  | Max. angular grid division number :        8
  | Radial grid for Hartree potential :     1463
  | Number of spin channels           :        1
  | Max. number of (n,l) shells per species with '+U' treatment:        1

------------------------------------------------------------
          Reading file control.in.
------------------------------------------------------------
  Spin treatment: No spin polarisation.
  Scalar relativistic treatment of kinetic energy: on-site free-atom approximation to ZORA.
  Forces will be computed.
  XC: Using hybrid-PBE0 functionals.
  Found k-point grid:         8         8         8
  Occupation type: Gaussian broadening, width =   0.100000E+00 eV.
  Fixing petukhov mixing factor to   1.000000000000
  Convergence accuracy of total energy:  0.1000E-05
  Convergence accuracy of sum of eigenvalues:  0.1000E-02
  Convergence accuracy of self-consistent charge density:  0.1000E-05
  Convergence accuracy of forces:  0.1000E-03
 
  Reading configuration options for species Ce                  .
  | Found nuclear charge :  58.0000
  | Found atomic mass :    140.116000000000      amu
  | Found l_max for Hartree potential  :   4
  | Found cutoff potl. onset [A], width [A], scale factor :    4.00000    1.50000    1.00000
  | Threshold for basis-dependent cutoff potential is   0.100000E-03
  | Found data for basic radial integration grid :    66 points, outermost radius =    5.500 A
  | Found multiplier for basic radial grid :   1
  | Found angular grid specification: user-specified.
  | Specified grid contains     4 separate shells.
  | Check grid settings after all constraints further below.
  | Found free-atom valence shell :  6 s   2.000
  | Found free-atom valence shell :  5 p   6.000
  | Found free-atom valence shell :  5 d   1.000
  | Found free-atom valence shell :  4 f   1.000
  | No ionic wave fns used. Skipping ion_occ.
  | No ionic wave fns used. Skipping ion_occ.
  | No ionic wave fns used. Skipping ion_occ.
  | No ionic wave fns used. Skipping ion_occ.
  | Found hydrogenic basis function :  4 d   4.800
  | Found hydrogenic basis function :  5 g  11.200
  | Found hydrogenic basis function :  4 f   7.600
  | Found hydrogenic basis function :  2 p   1.800
  | Found hydrogenic basis function :  3 s   2.700
  | Found request for '+U' treatment for  4 f shell, U =     0.000000 eV.
  Species Ce                  : Missing cutoff potential type.
  Defaulting to exp(1/x)/(1-x)^2 type cutoff potential.
  Species Ce: No 'logarithmic' tag. Using default grid for free atom:
  | Default logarithmic grid data [bohr] : 0.1000E-03 0.1000E+03 0.1012E+01
  Species Ce: On-site basis accuracy parameter (for Gram-Schmidt orthonormalisation) not specified.
  Using default value basis_acc =  0.1000000E-03.
  Species Ce                  : Using default innermost maximum threshold i_radial=  2 for radial functions.
  Species Ce                  : Default cutoff onset for free atom density etc. : 0.40000000E+01 AA.
  Species Ce                  : Basic radial grid will be enhanced according to radial_multiplier =   1, to contain    66 grid points.
 
  Reading configuration options for species O                   .
  | Found nuclear charge :   8.0000
  | Found atomic mass :    15.9994000000000      amu
  | Found l_max for Hartree potential  :   4
  | Found cutoff potl. onset [A], width [A], scale factor :    3.50000    1.50000    1.00000
  | Threshold for basis-dependent cutoff potential is   0.100000E-03
  | Found data for basic radial integration grid :    36 points, outermost radius =    5.000 A
  | Found multiplier for basic radial grid :   1
  | Found angular grid specification: user-specified.
  | Specified grid contains     5 separate shells.
  | Check grid settings after all constraints further below.
  | Found free-atom valence shell :  2 s   2.000
  | Found free-atom valence shell :  2 p   4.000
  | No ionic wave fns used. Skipping ion_occ.
  | No ionic wave fns used. Skipping ion_occ.
  | Found hydrogenic basis function :  2 p   1.800
  | Found hydrogenic basis function :  3 d   7.600
  | Found hydrogenic basis function :  3 s   6.400
  | Found request for '+U' treatment for  2 p shell, U =     0.000000 eV.
  Species O                   : Missing cutoff potential type.
  Defaulting to exp(1/x)/(1-x)^2 type cutoff potential.
  Species O : No 'logarithmic' tag. Using default grid for free atom:
  | Default logarithmic grid data [bohr] : 0.1000E-03 0.1000E+03 0.1012E+01
  Species O : On-site basis accuracy parameter (for Gram-Schmidt orthonormalisation) not specified.
  Using default value basis_acc =  0.1000000E-03.
  Species O                   : Using default innermost maximum threshold i_radial=  2 for radial functions.
  Species O                   : Default cutoff onset for free atom density etc. : 0.35000000E+01 AA.
  Species O                   : Basic radial grid will be enhanced according to radial_multiplier =   1, to contain    36 grid points.
 
  Finished reading input file 'control.in'.
 
------------------------------------------------------------


------------------------------------------------------------
          Reading geometry description geometry.in.
------------------------------------------------------------
  | The smallest distance between any two atoms is         2.34597622 AA.
  | The first atom of this pair is atom number                      1 .
  | The second atom of this pair is atom number                     8 .
  | Wigner-Seitz cell of the first atom image           0     0     0 .
  | (The Wigner-Seitz cell of the second atom is 0 0 0  by definition.)

  Symmetry information by spglib:
  | Precision set to  0.1E-04
  | Number of Operations  : 192
  | Space group           : 225
  | International         : Fm-3m
  | Schoenflies           : Oh^5
  Input structure read successfully.
  The structure contains       12 atoms,  and a total of        296.000 electrons.

  Input geometry:
  | Unit cell:
  |        5.41780000        0.00000000        0.00000000
  |        0.00000000        5.41780000        0.00000000
  |        0.00000000        0.00000000        5.41780000
  | Atomic structure:
  |       Atom                x [A]            y [A]            z [A]
  |    1: Species Ce            0.00000000        0.00000000        0.00000000
  |    2: Species Ce            0.00000000        2.70890000        2.70890000
  |    3: Species Ce            2.70890000        0.00000000        2.70890000
  |    4: Species Ce            2.70890000        2.70890000        0.00000000
  |    5: Species O             1.35445000        1.35445000        4.06335000
  |    6: Species O             1.35445000        4.06335000        1.35445000
  |    7: Species O             4.06335000        1.35445000        1.35445000
  |    8: Species O             4.06335000        4.06335000        4.06335000
  |    9: Species O             4.06335000        4.06335000        1.35445000
  |   10: Species O             4.06335000        1.35445000        4.06335000
  |   11: Species O             1.35445000        4.06335000        4.06335000
  |   12: Species O             1.35445000        1.35445000        1.35445000

  Lattice parameters for 3D lattice (in Angstroms) :     5.417800    5.417800    5.417800
  Angle(s) between unit vectors (in degrees)       :    90.000000   90.000000   90.000000


  Quantities derived from the lattice vectors (in Angstrom^-1):
  | Reciprocal lattice vector 1:  1.159730  0.000000  0.000000
  | Reciprocal lattice vector 2:  0.000000  1.159730  0.000000
  | Reciprocal lattice vector 3:  0.000000  0.000000  1.159730
  | Unit cell volume                               :   0.159026E+03  Angstrom^3

  Fractional coordinates:
                         L1                L2                L3
       atom_frac         0.00000000        0.00000000        0.00000000  Ce
       atom_frac         0.00000000        0.50000000        0.50000000  Ce
       atom_frac         0.50000000        0.00000000        0.50000000  Ce
       atom_frac         0.50000000        0.50000000        0.00000000  Ce
       atom_frac         0.25000000        0.25000000        0.75000000  O
       atom_frac         0.25000000        0.75000000        0.25000000  O
       atom_frac         0.75000000        0.25000000        0.25000000  O
       atom_frac         0.75000000        0.75000000        0.75000000  O
       atom_frac         0.75000000        0.75000000        0.25000000  O
       atom_frac         0.75000000        0.25000000        0.75000000  O
       atom_frac         0.25000000        0.75000000        0.75000000  O
       atom_frac         0.25000000        0.25000000        0.25000000  O

 
  Finished reading input file 'geometry.in'.
 

 
  Consistency checks for stacksize environment parameter are next.
 
  | Maximum stacksize for task 0: unlimited
  | Maximum stacksize for task 1: unlimited
  | Maximum stacksize for task 2: unlimited
  | Maximum stacksize for task 3: unlimited
  | Maximum stacksize for task 4: unlimited
  | Maximum stacksize for task 5: unlimited
  | Maximum stacksize for task 6: unlimited
  | Maximum stacksize for task 7: unlimited
  | Maximum stacksize for task 8: unlimited
  | Maximum stacksize for task 9: unlimited
  | Maximum stacksize for task 10: unlimited
  | Maximum stacksize for task 11: unlimited
  | Maximum stacksize for task 12: unlimited
  | Maximum stacksize for task 13: unlimited
  | Maximum stacksize for task 14: unlimited
  | Maximum stacksize for task 15: unlimited
  | Maximum stacksize for task 16: unlimited
  | Maximum stacksize for task 17: unlimited
  | Maximum stacksize for task 18: unlimited
  | Maximum stacksize for task 19: unlimited
  | Maximum stacksize for task 20: unlimited
  | Maximum stacksize for task 21: unlimited
  | Maximum stacksize for task 22: unlimited
  | Maximum stacksize for task 23: unlimited
  | Maximum stacksize for task 24: unlimited
  | Maximum stacksize for task 25: unlimited
  | Maximum stacksize for task 26: unlimited
  | Maximum stacksize for task 27: unlimited
  | Maximum stacksize for task 28: unlimited
  | Maximum stacksize for task 29: unlimited
  | Maximum stacksize for task 30: unlimited
  | Maximum stacksize for task 31: unlimited
  | Maximum stacksize for task 32: unlimited
  | Maximum stacksize for task 33: unlimited
  | Maximum stacksize for task 34: unlimited
  | Maximum stacksize for task 35: unlimited
  | Maximum stacksize for task 36: unlimited
  | Maximum stacksize for task 37: unlimited
  | Maximum stacksize for task 38: unlimited
  | Maximum stacksize for task 39: unlimited
  | Maximum stacksize for task 40: unlimited
  | Maximum stacksize for task 41: unlimited
  | Maximum stacksize for task 42: unlimited
  | Maximum stacksize for task 43: unlimited
  | Maximum stacksize for task 44: unlimited
  | Maximum stacksize for task 45: unlimited
  | Maximum stacksize for task 46: unlimited
  | Maximum stacksize for task 47: unlimited
  | Maximum stacksize for task 48: unlimited
  | Maximum stacksize for task 49: unlimited
  | Maximum stacksize for task 50: unlimited
  | Maximum stacksize for task 51: unlimited
  | Maximum stacksize for task 52: unlimited
  | Maximum stacksize for task 53: unlimited
  | Maximum stacksize for task 54: unlimited
  | Maximum stacksize for task 55: unlimited
  | Maximum stacksize for task 56: unlimited
  | Maximum stacksize for task 57: unlimited
  | Maximum stacksize for task 58: unlimited
  | Maximum stacksize for task 59: unlimited
  | Maximum stacksize for task 60: unlimited
  | Maximum stacksize for task 61: unlimited
  | Maximum stacksize for task 62: unlimited
  | Maximum stacksize for task 63: unlimited
  | Maximum stacksize for task 64: unlimited
  | Maximum stacksize for task 65: unlimited
  | Maximum stacksize for task 66: unlimited
  | Maximum stacksize for task 67: unlimited
  | Maximum stacksize for task 68: unlimited
  | Maximum stacksize for task 69: unlimited
  | Maximum stacksize for task 70: unlimited
  | Maximum stacksize for task 71: unlimited
  | Maximum stacksize for task 72: unlimited
  | Maximum stacksize for task 73: unlimited
  | Maximum stacksize for task 74: unlimited
  | Maximum stacksize for task 75: unlimited
  | Maximum stacksize for task 76: unlimited
  | Maximum stacksize for task 77: unlimited
  | Maximum stacksize for task 78: unlimited
  | Maximum stacksize for task 79: unlimited
  | Maximum stacksize for task 80: unlimited
  | Maximum stacksize for task 81: unlimited
  | Maximum stacksize for task 82: unlimited
  | Maximum stacksize for task 83: unlimited
  | Maximum stacksize for task 84: unlimited
  | Maximum stacksize for task 85: unlimited
  | Maximum stacksize for task 86: unlimited
  | Maximum stacksize for task 87: unlimited
  | Maximum stacksize for task 88: unlimited
  | Maximum stacksize for task 89: unlimited
  | Maximum stacksize for task 90: unlimited
  | Maximum stacksize for task 91: unlimited
  | Maximum stacksize for task 92: unlimited
  | Maximum stacksize for task 93: unlimited
  | Maximum stacksize for task 94: unlimited
  | Maximum stacksize for task 95: unlimited
  | Maximum stacksize for task 96: unlimited
  | Maximum stacksize for task 97: unlimited
  | Maximum stacksize for task 98: unlimited
  | Maximum stacksize for task 99: unlimited
  | Maximum stacksize for task 100: unlimited
  | Maximum stacksize for task 101: unlimited
  | Maximum stacksize for task 102: unlimited
  | Maximum stacksize for task 103: unlimited
  | Maximum stacksize for task 104: unlimited
  | Maximum stacksize for task 105: unlimited
  | Maximum stacksize for task 106: unlimited
  | Maximum stacksize for task 107: unlimited
  | Maximum stacksize for task 108: unlimited
  | Maximum stacksize for task 109: unlimited
  | Maximum stacksize for task 110: unlimited
  | Maximum stacksize for task 111: unlimited
  | Maximum stacksize for task 112: unlimited
  | Maximum stacksize for task 113: unlimited
  | Maximum stacksize for task 114: unlimited
  | Maximum stacksize for task 115: unlimited
  | Maximum stacksize for task 116: unlimited
  | Maximum stacksize for task 117: unlimited
  | Maximum stacksize for task 118: unlimited
  | Maximum stacksize for task 119: unlimited
  | Maximum stacksize for task 120: unlimited
  | Maximum stacksize for task 121: unlimited
  | Maximum stacksize for task 122: unlimited
  | Maximum stacksize for task 123: unlimited
  | Maximum stacksize for task 124: unlimited
  | Maximum stacksize for task 125: unlimited
  | Maximum stacksize for task 126: unlimited
  | Maximum stacksize for task 127: unlimited
  | Maximum stacksize for task 128: unlimited
  | Maximum stacksize for task 129: unlimited
  | Maximum stacksize for task 130: unlimited
  | Maximum stacksize for task 131: unlimited
  | Maximum stacksize for task 132: unlimited
  | Maximum stacksize for task 133: unlimited
  | Maximum stacksize for task 134: unlimited
  | Maximum stacksize for task 135: unlimited
  | Maximum stacksize for task 136: unlimited
  | Maximum stacksize for task 137: unlimited
  | Maximum stacksize for task 138: unlimited
  | Maximum stacksize for task 139: unlimited
  | Maximum stacksize for task 140: unlimited
  | Maximum stacksize for task 141: unlimited
  | Maximum stacksize for task 142: unlimited
  | Maximum stacksize for task 143: unlimited
  | Maximum stacksize for task 144: unlimited
  | Maximum stacksize for task 145: unlimited
  | Maximum stacksize for task 146: unlimited
  | Maximum stacksize for task 147: unlimited
  | Maximum stacksize for task 148: unlimited
  | Maximum stacksize for task 149: unlimited
  | Maximum stacksize for task 150: unlimited
  | Maximum stacksize for task 151: unlimited
  | Maximum stacksize for task 152: unlimited
  | Maximum stacksize for task 153: unlimited
  | Maximum stacksize for task 154: unlimited
  | Maximum stacksize for task 155: unlimited
  | Maximum stacksize for task 156: unlimited
  | Maximum stacksize for task 157: unlimited
  | Maximum stacksize for task 158: unlimited
  | Maximum stacksize for task 159: unlimited
  | Maximum stacksize for task 160: unlimited
  | Maximum stacksize for task 161: unlimited
  | Maximum stacksize for task 162: unlimited
  | Maximum stacksize for task 163: unlimited
  | Maximum stacksize for task 164: unlimited
  | Maximum stacksize for task 165: unlimited
  | Maximum stacksize for task 166: unlimited
  | Maximum stacksize for task 167: unlimited
  | Maximum stacksize for task 168: unlimited
  | Maximum stacksize for task 169: unlimited
  | Maximum stacksize for task 170: unlimited
  | Maximum stacksize for task 171: unlimited
  | Maximum stacksize for task 172: unlimited
  | Maximum stacksize for task 173: unlimited
  | Maximum stacksize for task 174: unlimited
  | Maximum stacksize for task 175: unlimited
  | Maximum stacksize for task 176: unlimited
  | Maximum stacksize for task 177: unlimited
  | Maximum stacksize for task 178: unlimited
  | Maximum stacksize for task 179: unlimited
  | Maximum stacksize for task 180: unlimited
  | Maximum stacksize for task 181: unlimited
  | Maximum stacksize for task 182: unlimited
  | Maximum stacksize for task 183: unlimited
  | Maximum stacksize for task 184: unlimited
  | Maximum stacksize for task 185: unlimited
  | Maximum stacksize for task 186: unlimited
  | Maximum stacksize for task 187: unlimited
  | Maximum stacksize for task 188: unlimited
  | Maximum stacksize for task 189: unlimited
  | Maximum stacksize for task 190: unlimited
  | Maximum stacksize for task 191: unlimited
  | Maximum stacksize for task 192: unlimited
  | Maximum stacksize for task 193: unlimited
  | Maximum stacksize for task 194: unlimited
  | Maximum stacksize for task 195: unlimited
  | Maximum stacksize for task 196: unlimited
  | Maximum stacksize for task 197: unlimited
  | Maximum stacksize for task 198: unlimited
  | Maximum stacksize for task 199: unlimited
  | Maximum stacksize for task 200: unlimited
  | Maximum stacksize for task 201: unlimited
  | Maximum stacksize for task 202: unlimited
  | Maximum stacksize for task 203: unlimited
  | Maximum stacksize for task 204: unlimited
  | Maximum stacksize for task 205: unlimited
  | Maximum stacksize for task 206: unlimited
  | Maximum stacksize for task 207: unlimited
  | Maximum stacksize for task 208: unlimited
  | Maximum stacksize for task 209: unlimited
  | Maximum stacksize for task 210: unlimited
  | Maximum stacksize for task 211: unlimited
  | Maximum stacksize for task 212: unlimited
  | Maximum stacksize for task 213: unlimited
  | Maximum stacksize for task 214: unlimited
  | Maximum stacksize for task 215: unlimited
  | Maximum stacksize for task 216: unlimited
  | Maximum stacksize for task 217: unlimited
  | Maximum stacksize for task 218: unlimited
  | Maximum stacksize for task 219: unlimited
  | Maximum stacksize for task 220: unlimited
  | Maximum stacksize for task 221: unlimited
  | Maximum stacksize for task 222: unlimited
  | Maximum stacksize for task 223: unlimited
  | Maximum stacksize for task 224: unlimited
  | Maximum stacksize for task 225: unlimited
  | Maximum stacksize for task 226: unlimited
  | Maximum stacksize for task 227: unlimited
  | Maximum stacksize for task 228: unlimited
  | Maximum stacksize for task 229: unlimited
  | Maximum stacksize for task 230: unlimited
  | Maximum stacksize for task 231: unlimited
  | Maximum stacksize for task 232: unlimited
  | Maximum stacksize for task 233: unlimited
  | Maximum stacksize for task 234: unlimited
  | Maximum stacksize for task 235: unlimited
  | Maximum stacksize for task 236: unlimited
  | Maximum stacksize for task 237: unlimited
  | Maximum stacksize for task 238: unlimited
  | Maximum stacksize for task 239: unlimited
  | Maximum stacksize for task 240: unlimited
  | Maximum stacksize for task 241: unlimited
  | Maximum stacksize for task 242: unlimited
  | Maximum stacksize for task 243: unlimited
  | Maximum stacksize for task 244: unlimited
  | Maximum stacksize for task 245: unlimited
  | Maximum stacksize for task 246: unlimited
  | Maximum stacksize for task 247: unlimited
  | Maximum stacksize for task 248: unlimited
  | Maximum stacksize for task 249: unlimited
  | Maximum stacksize for task 250: unlimited
  | Maximum stacksize for task 251: unlimited
  | Maximum stacksize for task 252: unlimited
  | Maximum stacksize for task 253: unlimited
  | Maximum stacksize for task 254: unlimited
  | Maximum stacksize for task 255: unlimited
  | Maximum stacksize for task 256: unlimited
  | Maximum stacksize for task 257: unlimited
  | Maximum stacksize for task 258: unlimited
  | Maximum stacksize for task 259: unlimited
  | Maximum stacksize for task 260: unlimited
  | Maximum stacksize for task 261: unlimited
  | Maximum stacksize for task 262: unlimited
  | Maximum stacksize for task 263: unlimited
  | Maximum stacksize for task 264: unlimited
  | Maximum stacksize for task 265: unlimited
  | Maximum stacksize for task 266: unlimited
  | Maximum stacksize for task 267: unlimited
  | Maximum stacksize for task 268: unlimited
  | Maximum stacksize for task 269: unlimited
  | Maximum stacksize for task 270: unlimited
  | Maximum stacksize for task 271: unlimited
  | Maximum stacksize for task 272: unlimited
  | Maximum stacksize for task 273: unlimited
  | Maximum stacksize for task 274: unlimited
  | Maximum stacksize for task 275: unlimited
  | Maximum stacksize for task 276: unlimited
  | Maximum stacksize for task 277: unlimited
  | Maximum stacksize for task 278: unlimited
  | Maximum stacksize for task 279: unlimited
  | Maximum stacksize for task 280: unlimited
  | Maximum stacksize for task 281: unlimited
  | Maximum stacksize for task 282: unlimited
  | Maximum stacksize for task 283: unlimited
  | Maximum stacksize for task 284: unlimited
  | Maximum stacksize for task 285: unlimited
  | Maximum stacksize for task 286: unlimited
  | Maximum stacksize for task 287: unlimited
  | Maximum stacksize for task 288: unlimited
  | Maximum stacksize for task 289: unlimited
  | Maximum stacksize for task 290: unlimited
  | Maximum stacksize for task 291: unlimited
  | Maximum stacksize for task 292: unlimited
  | Maximum stacksize for task 293: unlimited
  | Maximum stacksize for task 294: unlimited
  | Maximum stacksize for task 295: unlimited
  | Maximum stacksize for task 296: unlimited
  | Maximum stacksize for task 297: unlimited
  | Maximum stacksize for task 298: unlimited
  | Maximum stacksize for task 299: unlimited
  | Maximum stacksize for task 300: unlimited
  | Maximum stacksize for task 301: unlimited
  | Maximum stacksize for task 302: unlimited
  | Maximum stacksize for task 303: unlimited
  | Maximum stacksize for task 304: unlimited
  | Maximum stacksize for task 305: unlimited
  | Maximum stacksize for task 306: unlimited
  | Maximum stacksize for task 307: unlimited
  | Maximum stacksize for task 308: unlimited
  | Maximum stacksize for task 309: unlimited
  | Maximum stacksize for task 310: unlimited
  | Maximum stacksize for task 311: unlimited
  | Maximum stacksize for task 312: unlimited
  | Maximum stacksize for task 313: unlimited
  | Maximum stacksize for task 314: unlimited
  | Maximum stacksize for task 315: unlimited
  | Maximum stacksize for task 316: unlimited
  | Maximum stacksize for task 317: unlimited
  | Maximum stacksize for task 318: unlimited
  | Maximum stacksize for task 319: unlimited
  | Maximum stacksize for task 320: unlimited
  | Maximum stacksize for task 321: unlimited
  | Maximum stacksize for task 322: unlimited
  | Maximum stacksize for task 323: unlimited
  | Maximum stacksize for task 324: unlimited
  | Maximum stacksize for task 325: unlimited
  | Maximum stacksize for task 326: unlimited
  | Maximum stacksize for task 327: unlimited
  | Maximum stacksize for task 328: unlimited
  | Maximum stacksize for task 329: unlimited
  | Maximum stacksize for task 330: unlimited
  | Maximum stacksize for task 331: unlimited
  | Maximum stacksize for task 332: unlimited
  | Maximum stacksize for task 333: unlimited
  | Maximum stacksize for task 334: unlimited
  | Maximum stacksize for task 335: unlimited
  | Maximum stacksize for task 336: unlimited
  | Maximum stacksize for task 337: unlimited
  | Maximum stacksize for task 338: unlimited
  | Maximum stacksize for task 339: unlimited
  | Maximum stacksize for task 340: unlimited
  | Maximum stacksize for task 341: unlimited
  | Maximum stacksize for task 342: unlimited
  | Maximum stacksize for task 343: unlimited
  | Maximum stacksize for task 344: unlimited
  | Maximum stacksize for task 345: unlimited
  | Maximum stacksize for task 346: unlimited
  | Maximum stacksize for task 347: unlimited
  | Maximum stacksize for task 348: unlimited
  | Maximum stacksize for task 349: unlimited
  | Maximum stacksize for task 350: unlimited
  | Maximum stacksize for task 351: unlimited
  | Maximum stacksize for task 352: unlimited
  | Maximum stacksize for task 353: unlimited
  | Maximum stacksize for task 354: unlimited
  | Maximum stacksize for task 355: unlimited
  | Maximum stacksize for task 356: unlimited
  | Maximum stacksize for task 357: unlimited
  | Maximum stacksize for task 358: unlimited
  | Maximum stacksize for task 359: unlimited
  | Maximum stacksize for task 360: unlimited
  | Maximum stacksize for task 361: unlimited
  | Maximum stacksize for task 362: unlimited
  | Maximum stacksize for task 363: unlimited
  | Maximum stacksize for task 364: unlimited
  | Maximum stacksize for task 365: unlimited
  | Maximum stacksize for task 366: unlimited
  | Maximum stacksize for task 367: unlimited
  | Maximum stacksize for task 368: unlimited
  | Maximum stacksize for task 369: unlimited
  | Maximum stacksize for task 370: unlimited
  | Maximum stacksize for task 371: unlimited
  | Maximum stacksize for task 372: unlimited
  | Maximum stacksize for task 373: unlimited
  | Maximum stacksize for task 374: unlimited
  | Maximum stacksize for task 375: unlimited
  | Maximum stacksize for task 376: unlimited
  | Maximum stacksize for task 377: unlimited
  | Maximum stacksize for task 378: unlimited
  | Maximum stacksize for task 379: unlimited
  | Maximum stacksize for task 380: unlimited
  | Maximum stacksize for task 381: unlimited
  | Maximum stacksize for task 382: unlimited
  | Maximum stacksize for task 383: unlimited
  | Maximum stacksize for task 384: unlimited
  | Maximum stacksize for task 385: unlimited
  | Maximum stacksize for task 386: unlimited
  | Maximum stacksize for task 387: unlimited
  | Maximum stacksize for task 388: unlimited
  | Maximum stacksize for task 389: unlimited
  | Maximum stacksize for task 390: unlimited
  | Maximum stacksize for task 391: unlimited
  | Maximum stacksize for task 392: unlimited
  | Maximum stacksize for task 393: unlimited
  | Maximum stacksize for task 394: unlimited
  | Maximum stacksize for task 395: unlimited
  | Maximum stacksize for task 396: unlimited
  | Maximum stacksize for task 397: unlimited
  | Maximum stacksize for task 398: unlimited
  | Maximum stacksize for task 399: unlimited
  | Maximum stacksize for task 400: unlimited
  | Maximum stacksize for task 401: unlimited
  | Maximum stacksize for task 402: unlimited
  | Maximum stacksize for task 403: unlimited
  | Maximum stacksize for task 404: unlimited
  | Maximum stacksize for task 405: unlimited
  | Maximum stacksize for task 406: unlimited
  | Maximum stacksize for task 407: unlimited
  | Maximum stacksize for task 408: unlimited
  | Maximum stacksize for task 409: unlimited
  | Maximum stacksize for task 410: unlimited
  | Maximum stacksize for task 411: unlimited
  | Maximum stacksize for task 412: unlimited
  | Maximum stacksize for task 413: unlimited
  | Maximum stacksize for task 414: unlimited
  | Maximum stacksize for task 415: unlimited
  | Maximum stacksize for task 416: unlimited
  | Maximum stacksize for task 417: unlimited
  | Maximum stacksize for task 418: unlimited
  | Maximum stacksize for task 419: unlimited
  | Maximum stacksize for task 420: unlimited
  | Maximum stacksize for task 421: unlimited
  | Maximum stacksize for task 422: unlimited
  | Maximum stacksize for task 423: unlimited
  | Maximum stacksize for task 424: unlimited
  | Maximum stacksize for task 425: unlimited
  | Maximum stacksize for task 426: unlimited
  | Maximum stacksize for task 427: unlimited
  | Maximum stacksize for task 428: unlimited
  | Maximum stacksize for task 429: unlimited
  | Maximum stacksize for task 430: unlimited
  | Maximum stacksize for task 431: unlimited
  | Maximum stacksize for task 432: unlimited
  | Maximum stacksize for task 433: unlimited
  | Maximum stacksize for task 434: unlimited
  | Maximum stacksize for task 435: unlimited
  | Maximum stacksize for task 436: unlimited
  | Maximum stacksize for task 437: unlimited
  | Maximum stacksize for task 438: unlimited
  | Maximum stacksize for task 439: unlimited
  | Maximum stacksize for task 440: unlimited
  | Maximum stacksize for task 441: unlimited
  | Maximum stacksize for task 442: unlimited
  | Maximum stacksize for task 443: unlimited
  | Maximum stacksize for task 444: unlimited
  | Maximum stacksize for task 445: unlimited
  | Maximum stacksize for task 446: unlimited
  | Maximum stacksize for task 447: unlimited
  | Maximum stacksize for task 448: unlimited
  | Maximum stacksize for task 449: unlimited
  | Maximum stacksize for task 450: unlimited
  | Maximum stacksize for task 451: unlimited
  | Maximum stacksize for task 452: unlimited
  | Maximum stacksize for task 453: unlimited
  | Maximum stacksize for task 454: unlimited
  | Maximum stacksize for task 455: unlimited
  | Maximum stacksize for task 456: unlimited
  | Maximum stacksize for task 457: unlimited
  | Maximum stacksize for task 458: unlimited
  | Maximum stacksize for task 459: unlimited
  | Maximum stacksize for task 460: unlimited
  | Maximum stacksize for task 461: unlimited
  | Maximum stacksize for task 462: unlimited
  | Maximum stacksize for task 463: unlimited
  | Maximum stacksize for task 464: unlimited
  | Maximum stacksize for task 465: unlimited
  | Maximum stacksize for task 466: unlimited
  | Maximum stacksize for task 467: unlimited
  | Maximum stacksize for task 468: unlimited
  | Maximum stacksize for task 469: unlimited
  | Maximum stacksize for task 470: unlimited
  | Maximum stacksize for task 471: unlimited
  | Maximum stacksize for task 472: unlimited
  | Maximum stacksize for task 473: unlimited
  | Maximum stacksize for task 474: unlimited
  | Maximum stacksize for task 475: unlimited
  | Maximum stacksize for task 476: unlimited
  | Maximum stacksize for task 477: unlimited
  | Maximum stacksize for task 478: unlimited
  | Maximum stacksize for task 479: unlimited
  | Maximum stacksize for task 480: unlimited
  | Maximum stacksize for task 481: unlimited
  | Maximum stacksize for task 482: unlimited
  | Maximum stacksize for task 483: unlimited
  | Maximum stacksize for task 484: unlimited
  | Maximum stacksize for task 485: unlimited
  | Maximum stacksize for task 486: unlimited
  | Maximum stacksize for task 487: unlimited
  | Maximum stacksize for task 488: unlimited
  | Maximum stacksize for task 489: unlimited
  | Maximum stacksize for task 490: unlimited
  | Maximum stacksize for task 491: unlimited
  | Maximum stacksize for task 492: unlimited
  | Maximum stacksize for task 493: unlimited
  | Maximum stacksize for task 494: unlimited
  | Maximum stacksize for task 495: unlimited
  | Maximum stacksize for task 496: unlimited
  | Maximum stacksize for task 497: unlimited
  | Maximum stacksize for task 498: unlimited
  | Maximum stacksize for task 499: unlimited
  | Maximum stacksize for task 500: unlimited
  | Maximum stacksize for task 501: unlimited
  | Maximum stacksize for task 502: unlimited
  | Maximum stacksize for task 503: unlimited
  | Maximum stacksize for task 504: unlimited
  | Maximum stacksize for task 505: unlimited
  | Maximum stacksize for task 506: unlimited
  | Maximum stacksize for task 507: unlimited
  | Maximum stacksize for task 508: unlimited
  | Maximum stacksize for task 509: unlimited
  | Maximum stacksize for task 510: unlimited
  | Maximum stacksize for task 511: unlimited
  | Maximum stacksize for task 512: unlimited
  | Maximum stacksize for task 513: unlimited
  | Maximum stacksize for task 514: unlimited
  | Maximum stacksize for task 515: unlimited
  | Maximum stacksize for task 516: unlimited
  | Maximum stacksize for task 517: unlimited
  | Maximum stacksize for task 518: unlimited
  | Maximum stacksize for task 519: unlimited
  | Maximum stacksize for task 520: unlimited
  | Maximum stacksize for task 521: unlimited
  | Maximum stacksize for task 522: unlimited
  | Maximum stacksize for task 523: unlimited
  | Maximum stacksize for task 524: unlimited
  | Maximum stacksize for task 525: unlimited
  | Maximum stacksize for task 526: unlimited
  | Maximum stacksize for task 527: unlimited
  | Maximum stacksize for task 528: unlimited
  | Maximum stacksize for task 529: unlimited
  | Maximum stacksize for task 530: unlimited
  | Maximum stacksize for task 531: unlimited
  | Maximum stacksize for task 532: unlimited
  | Maximum stacksize for task 533: unlimited
  | Maximum stacksize for task 534: unlimited
  | Maximum stacksize for task 535: unlimited
  | Maximum stacksize for task 536: unlimited
  | Maximum stacksize for task 537: unlimited
  | Maximum stacksize for task 538: unlimited
  | Maximum stacksize for task 539: unlimited
  | Maximum stacksize for task 540: unlimited
  | Maximum stacksize for task 541: unlimited
  | Maximum stacksize for task 542: unlimited
  | Maximum stacksize for task 543: unlimited
  | Maximum stacksize for task 544: unlimited
  | Maximum stacksize for task 545: unlimited
  | Maximum stacksize for task 546: unlimited
  | Maximum stacksize for task 547: unlimited
  | Maximum stacksize for task 548: unlimited
  | Maximum stacksize for task 549: unlimited
  | Maximum stacksize for task 550: unlimited
  | Maximum stacksize for task 551: unlimited
  | Maximum stacksize for task 552: unlimited
  | Maximum stacksize for task 553: unlimited
  | Maximum stacksize for task 554: unlimited
  | Maximum stacksize for task 555: unlimited
  | Maximum stacksize for task 556: unlimited
  | Maximum stacksize for task 557: unlimited
  | Maximum stacksize for task 558: unlimited
  | Maximum stacksize for task 559: unlimited
  | Maximum stacksize for task 560: unlimited
  | Maximum stacksize for task 561: unlimited
  | Maximum stacksize for task 562: unlimited
  | Maximum stacksize for task 563: unlimited
  | Maximum stacksize for task 564: unlimited
  | Maximum stacksize for task 565: unlimited
  | Maximum stacksize for task 566: unlimited
  | Maximum stacksize for task 567: unlimited
  | Maximum stacksize for task 568: unlimited
  | Maximum stacksize for task 569: unlimited
  | Maximum stacksize for task 570: unlimited
  | Maximum stacksize for task 571: unlimited
  | Maximum stacksize for task 572: unlimited
  | Maximum stacksize for task 573: unlimited
  | Maximum stacksize for task 574: unlimited
  | Maximum stacksize for task 575: unlimited
  | Maximum stacksize for task 576: unlimited
  | Maximum stacksize for task 577: unlimited
  | Maximum stacksize for task 578: unlimited
  | Maximum stacksize for task 579: unlimited
  | Maximum stacksize for task 580: unlimited
  | Maximum stacksize for task 581: unlimited
  | Maximum stacksize for task 582: unlimited
  | Maximum stacksize for task 583: unlimited
  | Maximum stacksize for task 584: unlimited
  | Maximum stacksize for task 585: unlimited
  | Maximum stacksize for task 586: unlimited
  | Maximum stacksize for task 587: unlimited
  | Maximum stacksize for task 588: unlimited
  | Maximum stacksize for task 589: unlimited
  | Maximum stacksize for task 590: unlimited
  | Maximum stacksize for task 591: unlimited
  | Maximum stacksize for task 592: unlimited
  | Maximum stacksize for task 593: unlimited
  | Maximum stacksize for task 594: unlimited
  | Maximum stacksize for task 595: unlimited
  | Maximum stacksize for task 596: unlimited
  | Maximum stacksize for task 597: unlimited
  | Maximum stacksize for task 598: unlimited
  | Maximum stacksize for task 599: unlimited
  | Maximum stacksize for task 600: unlimited
  | Maximum stacksize for task 601: unlimited
  | Maximum stacksize for task 602: unlimited
  | Maximum stacksize for task 603: unlimited
  | Maximum stacksize for task 604: unlimited
  | Maximum stacksize for task 605: unlimited
  | Maximum stacksize for task 606: unlimited
  | Maximum stacksize for task 607: unlimited
  | Maximum stacksize for task 608: unlimited
  | Maximum stacksize for task 609: unlimited
  | Maximum stacksize for task 610: unlimited
  | Maximum stacksize for task 611: unlimited
  | Maximum stacksize for task 612: unlimited
  | Maximum stacksize for task 613: unlimited
  | Maximum stacksize for task 614: unlimited
  | Maximum stacksize for task 615: unlimited
  | Maximum stacksize for task 616: unlimited
  | Maximum stacksize for task 617: unlimited
  | Maximum stacksize for task 618: unlimited
  | Maximum stacksize for task 619: unlimited
  | Maximum stacksize for task 620: unlimited
  | Maximum stacksize for task 621: unlimited
  | Maximum stacksize for task 622: unlimited
  | Maximum stacksize for task 623: unlimited
  | Maximum stacksize for task 624: unlimited
  | Maximum stacksize for task 625: unlimited
  | Maximum stacksize for task 626: unlimited
  | Maximum stacksize for task 627: unlimited
  | Maximum stacksize for task 628: unlimited
  | Maximum stacksize for task 629: unlimited
  | Maximum stacksize for task 630: unlimited
  | Maximum stacksize for task 631: unlimited
  | Maximum stacksize for task 632: unlimited
  | Maximum stacksize for task 633: unlimited
  | Maximum stacksize for task 634: unlimited
  | Maximum stacksize for task 635: unlimited
  | Maximum stacksize for task 636: unlimited
  | Maximum stacksize for task 637: unlimited
  | Maximum stacksize for task 638: unlimited
  | Maximum stacksize for task 639: unlimited
  | Current stacksize for task 0: unlimited
  | Current stacksize for task 1: unlimited
  | Current stacksize for task 2: unlimited
  | Current stacksize for task 3: unlimited
  | Current stacksize for task 4: unlimited
  | Current stacksize for task 5: unlimited
  | Current stacksize for task 6: unlimited
  | Current stacksize for task 7: unlimited
  | Current stacksize for task 8: unlimited
  | Current stacksize for task 9: unlimited
  | Current stacksize for task 10: unlimited
  | Current stacksize for task 11: unlimited
  | Current stacksize for task 12: unlimited
  | Current stacksize for task 13: unlimited
  | Current stacksize for task 14: unlimited
  | Current stacksize for task 15: unlimited
  | Current stacksize for task 16: unlimited
  | Current stacksize for task 17: unlimited
  | Current stacksize for task 18: unlimited
  | Current stacksize for task 19: unlimited
  | Current stacksize for task 20: unlimited
  | Current stacksize for task 21: unlimited
  | Current stacksize for task 22: unlimited
  | Current stacksize for task 23: unlimited
  | Current stacksize for task 24: unlimited
  | Current stacksize for task 25: unlimited
  | Current stacksize for task 26: unlimited
  | Current stacksize for task 27: unlimited
  | Current stacksize for task 28: unlimited
[...]
    118       2.00000          -1.028905          -27.99792
    119       2.00000          -1.005409          -27.35858
    120       2.00000          -1.005409          -27.35858
    121       2.00000          -1.005409          -27.35858
    122       2.00000          -0.880746          -23.96632
    123       2.00000          -0.880746          -23.96632
    124       2.00000          -0.880746          -23.96632
    125       2.00000          -0.571164          -15.54216
    126       2.00000          -0.571163          -15.54213
    127       2.00000          -0.571163          -15.54213
    128       2.00000          -0.569622          -15.50019
    129       2.00000          -0.569622          -15.50019
    130       2.00000          -0.569621          -15.50019
    131       2.00000          -0.461029          -12.54525
    132       2.00000          -0.461029          -12.54524
    133       2.00000          -0.461029          -12.54524
    134       2.00000          -0.461029          -12.54524
    135       2.00000          -0.461029          -12.54523
    136       2.00000          -0.461028          -12.54522
    137       2.00000          -0.443316          -12.06325
    138       2.00000          -0.443316          -12.06325
    139       2.00000          -0.443316          -12.06325
    140       2.00000          -0.443316          -12.06324
    141       2.00000          -0.443316          -12.06324
    142       2.00000          -0.443316          -12.06324
    143       2.00000          -0.433243          -11.78914
    144       2.00000          -0.433243          -11.78913
    145       2.00000          -0.433243          -11.78913
    146       2.00000          -0.432429          -11.76699
    147       2.00000          -0.432429          -11.76698
    148       2.00000          -0.432428          -11.76698
    149       0.00000          -0.241340           -6.56718
    150       0.00000          -0.241339           -6.56718
    151       0.00000          -0.241339           -6.56718
    152       0.00000          -0.240943           -6.55638
    153       0.00000          -0.240943           -6.55638
    154       0.00000          -0.240942           -6.55638
    155       0.00000          -0.240942           -6.55638
    156       0.00000          -0.240942           -6.55638
    157       0.00000          -0.240942           -6.55638
    158       0.00000          -0.233841           -6.36315
    159       0.00000          -0.233841           -6.36314
    160       0.00000          -0.233841           -6.36314
    161       0.00000          -0.231999           -6.31302
    162       0.00000          -0.228386           -6.21471
    163       0.00000          -0.228386           -6.21471
    164       0.00000          -0.228386           -6.21471
    165       0.00000          -0.217935           -5.93031
    166       0.00000          -0.217935           -5.93030
    167       0.00000          -0.217935           -5.93030
    168       0.00000          -0.217935           -5.93030
    169       0.00000          -0.217935           -5.93030
    170       0.00000          -0.217934           -5.93030
    171       0.00000          -0.209387           -5.69770
    172       0.00000          -0.209387           -5.69770
    173       0.00000          -0.209386           -5.69769
    174       0.00000          -0.207008           -5.63298
    175       0.00000          -0.207008           -5.63298
    176       0.00000          -0.207008           -5.63298
    177       0.00000          -0.128380           -3.49340
    178       0.00000          -0.128378           -3.49335
    179       0.00000          -0.128378           -3.49334
    180       0.00000          -0.118056           -3.21247
    181       0.00000          -0.118055           -3.21244
    182       0.00000          -0.077284           -2.10300
    183       0.00000          -0.041985           -1.14248
    184       0.00000          -0.041985           -1.14247
    185       0.00000          -0.041985           -1.14246
    186       0.00000          -0.032667           -0.88891
    187       0.00000          -0.032666           -0.88890
    188       0.00000          -0.032666           -0.88888
    189       0.00000           0.054488            1.48270
    190       0.00000           0.054488            1.48270
    191       0.00000           0.054489            1.48271
    192       0.00000           0.054489            1.48272
    193       0.00000           0.054489            1.48273
    194       0.00000           0.054490            1.48275
    195       0.00000           0.130532            3.55196
    196       0.00000           0.130532            3.55197
    197       0.00000           0.130534            3.55200
    198       0.00000           0.250783            6.82415
    199       0.00000           0.250784            6.82417
    200       0.00000           0.250785            6.82422
    201       0.00000           0.256950            6.99195
    202       0.00000           0.256952            6.99203
    203       0.00000           0.256968            6.99245
    204       0.00000           0.377062           10.26037
    205       0.00000           0.377064           10.26043
    206       0.00000           0.377064           10.26044
    207       0.00000           0.396320           10.78442
    208       0.00000           0.396326           10.78457

  What follows are estimated values for band gap, HOMO, LUMO, etc.
  | They are estimated on a discrete k-point grid and not necessarily exact.
  | For converged numbers, create a DOS and/or band structure plot on a denser k-grid.

  Highest occupied state (VBM) at    -11.14604660 eV (relative to internal zero)
  | Occupation number:      2.00000000
  | K-point:     182 at    0.500000    0.000000    0.500000 (in units of recip. lattice)

  Lowest unoccupied state (CBM) at    -6.78571848 eV (relative to internal zero)
  | Occupation number:      0.00000000
  | K-point:     205 at    0.500000    0.500000    0.500000 (in units of recip. lattice)

  ESTIMATED overall HOMO-LUMO gap:      4.36032812 eV between HOMO at k-point 182 and LUMO at k-point 205
  | This appears to be an indirect band gap.
  | Smallest direct gap :      4.53369410 eV for k_point 28 at    0.000000    0.500000    0.625000 (in units of recip. lattice)
  The gap value is above 0.2 eV. Unless you are using a very sparse k-point grid,
  this system is most likely an insulator or a semiconductor.

  | Chemical Potential                          :    -9.03959278 eV
  | Note that, for insulating systems, the printed 'chemical potential' value is not uniquely defined.
  | It can be anywhere in the energy gap, as long as it correctly separates occupied and unoccupied states.
  | In systems with a gap, the physically relevant chemical potential is the VBM or HOMO.

  Self-consistency cycle converged.


------------------------------------------------------------
  End self-consistency iteration #    32       :  max(cpu_time)    wall_clock(cpu1)
  | Time for this iteration                     :      218.755 s         218.803 s
  | Charge density & force component update     :        1.345 s           1.345 s
  | Density mixing                              :        0.002 s           0.001 s
  | Hartree multipole update                    :        0.002 s           0.003 s
  | Hartree multipole summation                 :        0.475 s           0.474 s
  | Hartree pot. SCF incomplete forces          :        0.039 s           0.039 s
  | Integration                                 :        0.138 s           0.139 s
  | Fock matrix evaluation                      :      216.613 s         216.599 s
  | Solution of K.-S. eqns.                     :        0.133 s           0.132 s
  | Total energy evaluation                     :        0.007 s           0.005 s

  Partial memory accounting:
  | Current value for overall tracked memory usage:
  |   Minimum:       86.946 MB (on task 165)
  |   Maximum:      226.737 MB (on task  13)
  |   Average:      165.305 MB
  | Peak value for overall tracked memory usage:
  |   Minimum:      238.389 MB (on task 383 after allocating tmpx2)
  |   Maximum:      923.322 MB (on task 460 after allocating tmp2_aux_mem)
  |   Average:      803.922 MB
  | Largest tracked array allocation so far:
  |   Minimum:       35.224 MB (ovlp3fn2 on task 510)
  |   Maximum:      589.641 MB (tmp2_aux_mem on task 384)
  |   Average:      492.900 MB
  Note:  These values currently only include a subset of arrays which are explicitly tracked.
  The "true" memory usage will be greater.
------------------------------------------------------------
  Removing unitary transformations (pure translations, rotations) from forces on atoms.
  Atomic forces before filtering:
  | Net force on center of mass :  -0.494380E-05 -0.453042E-05 -0.535404E-05 eV/A
  Atomic forces after filtering:
  | Net force on center of mass :   0.238198E-20  0.680565E-21  0.127606E-20 eV/A

  Energy and forces in a compact form:
  | Total energy uncorrected      :         -0.998506704757936E+06 eV
  | Total energy corrected        :         -0.998506704757936E+06 eV  <-- do not rely on this value for anything but (periodic) metals
  | Electronic free energy        :         -0.998506704757936E+06 eV
  Total atomic forces (unitary forces cleaned) [eV/Ang]:
  |    1          0.270263787801035E-06          0.302956241039232E-06          0.390214906803294E-06
  |    2          0.463154438385860E-06         -0.162715399339182E-05         -0.275299193345555E-05
  |    3         -0.211351947815195E-05          0.446411580253481E-06         -0.198443473265064E-05
  |    4         -0.172638478833811E-05         -0.209977733926415E-05          0.867868840662218E-06
  |    5          0.375320752515297E-06          0.411447967739978E-05          0.504641094552876E-06
  |    6          0.713881386267169E-06          0.279995418830809E-05          0.472857758522779E-06
  |    7          0.304953261232508E-06          0.418711192178005E-05          0.314713118760947E-06
  |    8          0.158624994241648E-06          0.294865657600606E-05          0.437150776119191E-06
  |    9          0.302397606769715E-06         -0.346698550087951E-05          0.455503061227156E-06
  |   10          0.198245776689959E-06         -0.220964497390881E-05          0.475695598349713E-06
  |   11          0.389314863322683E-06         -0.336849670215094E-05          0.417426076510493E-06
  |   12          0.663747399264179E-06         -0.202751167519144E-05          0.401355434597528E-06

  ------------------------------------ 
  Start decomposition of the XC Energy 
  ------------------------------------ 
  X and C from original XC functional choice 
  Hartree-Fock Energy :       -224.778280152 Ha          -6116.528208455 eV
  X Energy            :       -898.015310793 Ha         -24436.239908877 eV
  C Energy            :        -15.113209321 Ha           -411.251349865 eV
  XC Energy w/o HF    :       -688.350239962 Ha         -18730.963050286 eV
  Total XC Energy     :       -913.128520114 Ha         -24847.491258742 eV
  ------------------------------------ 
  LDA X and C from self-consistent density 
  X Energy LDA        :       -855.087732697 Ha         -23268.121075658 eV
  C Energy LDA        :        -27.104639870 Ha           -737.554777231 eV
  ------------------------------------ 
  End decomposition of the XC Energy 
  ------------------------------------ 

------------------------------------------------------------

------------------------------------------------------------------------------
  Final output of selected total energy values:

  The following output summarizes some interesting total energy values
  at the end of a run (AFTER all relaxation, molecular dynamics, etc.).

  | Total energy of the DFT / Hartree-Fock s.c.f. calculation      :        -998506.704757936 eV
  | Final zero-broadening corrected energy (caution - metals only) :        -998506.704757936 eV
  | For reference only, the value of 1 Hartree used in FHI-aims is :             27.211384500 eV
  | For reference only, the overall average (free atom contribution
  | + realspace contribution) of the electrostatic potential after
  | s.c.f. convergence is                                          :            -22.594389950 eV

  Before relying on these values, please be sure to understand exactly which
  total energy value is referred to by a given number. Different objects may
  all carry the same name 'total energy'. Definitions:

  Total energy of the DFT / Hartree-Fock s.c.f. calculation:
  | Note that this energy does not include ANY quantities calculated after the
  | s.c.f. cycle, in particular not ANY RPA, MP2, etc. many-body perturbation terms.

  Final zero-broadening corrected energy:
  | For metallic systems only, a broadening of the occupation numbers at the Fermi
  | level can be extrapolated back to zero broadening by an electron-gas inspired
  | formula. For all systems that are not real metals, this value can be
  | meaningless and should be avoided.

------------------------------------------------------------------------------
  Methods described in the following list of references were used in this FHI-aims run.
  If you publish the results, please make sure to cite these reference if they apply.
  FHI-aims is an academic code, and for our developers (often, Ph.D. students
  and postdocs), scientific credit in the community is essential.
  Thank you for helping us!

  For any use of FHI-aims, please cite:

    Volker Blum, Ralf Gehrke, Felix Hanke, Paula Havu, Ville Havu,
    Xinguo Ren, Karsten Reuter, and Matthias Scheffler
    'Ab initio molecular simulations with numeric atom-centered orbitals'
    Computer Physics Communications 180, 2175-2196 (2009)
    http://doi.org/10.1016/j.cpc.2009.06.022


  For Hartree-Fock, hybrid functionals, or many-body perturbation theory used in your run, please cite:

    Xinguo Ren, Patrick Rinke, Volker Blum, Juergen Wieferink, Alex Tkatchenko,
    Andrea Sanfilippo, Karsten Reuter, and Matthias Scheffler,
    'Resolution-of-identity approach to Hartree-Fock, hybrid density functionals,
    RPA, MP2, and GW with numeric atom-centered orbital basis functions'
    New Journal of Physics 14, 053020 (2012).
    http://doi.org/10.1088/1367-2630/14/5/053020


  The provided symmetry information was generated with SPGlib:

    Atsushi Togo, Yusuke Seto, Dimitar Pashov
    SPGlib 1.7.3 obtained from http://spglib.sourceforge.net
    Copyright (C) 2008 Atsushi Togo


 DFT+U infrastructure was used in your run
 please cite:

 Matthias Kick, Karsten Reuter and Harald Oberhofer,
 Intricacies Of DFT+U, not only in a Numeric Atom Centered Orbital Framework

 Journal of Chemical Theory and Computation
 https://


  The ELSI infrastructure was used in your run to solve the Kohn-Sham electronic structure.
  Please check out http://elsi-interchange.org to learn more.
  If scalability is important for your project, please acknowledge ELSI by citing:

    V. W-z. Yu, F. Corsetti, A. Garcia, W. P. Huhn, M. Jacquelin, W. Jia,
    B. Lange, L. Lin, J. Lu, W. Mi, A. Seifitokaldani, A. Vazquez-Mayagoitia,
    C. Yang, H. Yang, and V. Blum
    'ELSI: A unified software interface for Kohn-Sham electronic structure solvers'
    Computer Physics Communications 222, 267-285 (2018).
    http://doi.org/10.1016/j.cpc.2017.09.007


  For the real-space grid partitioning and parallelization used in this calculation, please cite:

    Ville Havu, Volker Blum, Paula Havu, and Matthias Scheffler,
    'Efficient O(N) integration for all-electron electronic structure calculation'
    'using numerically tabulated basis functions'
    Journal of Computational Physics 228, 8367-8379 (2009).
    http://doi.org/10.1016/j.jcp.2009.08.008


  The high-level electronic structure method used in your calculation
  employed our efficient localized resolution of identity for the Coulomb operator.
  Some calculations, especially large-scale hybrid density functional theory,
  are only possible thanks to this development. For this feature, please cite:

    Arvid Ihrig, Juergen Wieferink, Igor Ying Zhang, Matti Ropo, Xinguo Ren,
    Patrick Rinke, Matthias Scheffler, and Volker Blum,
    'Accurate localized resolution of identity approach for linear-scaling
    hybrid density functionals and for many-body perturbation theory'
    New Journal of Physics 117, 093020 (2015).
    http://doi.org/10.1088/1367-2630/17/9/093020

  Of course, there are many other important community references, e.g., those cited in the
  above references. Our list is limited to references that describe implementations in the
  FHI-aims code. The reason is purely practical (length of this list) - please credit others as well.

 * A warning was issued further up regarding the accuracy of onsite integrals.
   An integral with a negative eigenvalue was among the flagged integrals.
   In most standard situations, this warning is probably harmless.
   If needed, this can be verified by adjusting the radial_multiplier flag.

------------------------------------------------------------
          Leaving FHI-aims.
          Date     :  20240510, Time     :  115155.122

          Computational steps:
          | Number of self-consistency cycles          :           32
          | Number of SCF (re)initializations          :            1

          Detailed time accounting                     :  max(cpu_time)    wall_clock(cpu1)
          | Total time                                  :     6027.017 s        6028.772 s
          | Preparation time                            :        0.215 s           0.212 s
          | Boundary condition initalization            :        0.064 s           0.065 s
          | Grid partitioning                           :        0.105 s           0.105 s
          | Preloading free-atom quantities on grid     :        0.032 s           0.034 s
          | Free-atom superposition energy              :        0.002 s           0.002 s
          | Total time for integrations                 :        5.153 s           5.149 s
          | Product basis setup: Total time             :      137.262 s         137.329 s
          | Total time evaluating exchange matrix       :     5864.589 s        5864.733 s
          | Total time for solution of K.-S. equations  :        5.021 s           5.046 s
          | Total time for density & force components   :       10.997 s          10.995 s
          | Total time for mixing                       :        0.265 s           0.114 s
          | Total time for Hartree multipole update     :        0.104 s           0.117 s
          | Total time for Hartree multipole sum        :        1.095 s           1.154 s
          | Total time for total energy evaluation      :        0.264 s           0.178 s
          | Total time NSC force correction             :        0.039 s           0.039 s
          | Total time for scaled ZORA corrections      :        0.000 s           0.000 s

          Partial memory accounting:
          | Residual value for overall tracked memory usage across tasks:     0.000000 MB (should be 0.000000 MB)
          | Peak values for overall tracked memory usage:
          |   Minimum:      238.389 MB (on task 383 after allocating tmpx2)
          |   Maximum:      923.322 MB (on task 460 after allocating tmp2_aux_mem)
          |   Average:      803.922 MB
          | Largest tracked array allocation:
          |   Minimum:       35.224 MB (ovlp3fn2 on task 510)
          |   Maximum:      589.641 MB (tmp2_aux_mem on task 384)
          |   Average:      492.900 MB
          Note:  These values currently only include a subset of arrays which are explicitly tracked.
          The "true" memory usage will be greater.

          Have a nice day.
------------------------------------------------------------
