------------------------------------------------------------
          Invoking FHI-aims ...

          When using FHI-aims, please cite the following reference:

            Volker Blum, Ralf Gehrke, Felix Hanke, Paula Havu,
            Ville Havu, Xinguo Ren, Karsten Reuter, and Matthias Scheffler,
            'Ab Initio Molecular Simulations with Numeric Atom-Centered Orbitals',
            Computer Physics Communications 180, 2175-2196 (2009)

          In addition, many other developments in FHI-aims are likely important for
          your particular application. A partial list of references is given at the end of
          this file. Thank you for giving credit to the authors of these developments.

          For any questions about FHI-aims, please visit our slack channel at

            https://fhi-aims.slack.com

          and our main development and support site at

            https://aims-git.rz-berlin.mpg.de .

          The latter site, in particular, has a wiki to collect information, as well
          as an issue tracker to log discussions, suggest improvements, and report issues
          or bugs. https://aims-git.rz-berlin.mpg.de is also the main development site
          of the project and all new and updated code versions can be obtained there.
          Please send an email to aims-coordinators@fhi-berlin.mpg.de and we will add
          you to these sites. They are for you and everyone is welcome there.

------------------------------------------------------------



  Date     :  20240813, Time     :  165832.855
  Time zero on CPU 1             :   0.150358000000000E+00  s.
  Internal wall clock time zero  :           492800312.855  s.

  FHI-aims created a unique identifier for this run for later identification
  aims_uuid : 5725DEF0-9D68-4947-AA50-8E30190E350F

  Build configuration of the current instance of FHI-aims
  -------------------------------------------------------
  FHI-aims version      : 210618
  Commit number         : f9e1e7592
  CMake host system     : Linux-3.10.0-1127.13.1.el7.x86_64
  CMake version         : 3.17.3
  Fortran compiler      : /apps/compilers/intel/2018.2/compilers_and_libraries_2018/linux/mpi/intel64/bin/mpif90 (Intel) version 18.0.2.20180210
  Fortran compiler flags: -O3 -ip -fp-model precise
  C compiler            : /apps/compilers/intel/2018.2/compilers_and_libraries_2018/linux/bin/intel64/icc (Intel) version 18.0.2.20180210
  C compiler flags      : -O3 -ip -fp-model precise -std=gnu99
  ELPA2 kernel          : AVX2
  Using MPI
  Using ScaLAPACK
  Using LibXC
  Using i-PI
  Using RLSY
  Linking against: /apps/compilers/intel/2018.2/compilers_and_libraries_2018/linux/mkl/lib/intel64/libmkl_intel_lp64.so
                   /apps/compilers/intel/2018.2/compilers_and_libraries_2018/linux/mkl/lib/intel64/libmkl_intel_thread.so
                   /apps/compilers/intel/2018.2/compilers_and_libraries_2018/linux/mkl/lib/intel64/libmkl_core.so
                   /apps/compilers/intel/2018.2/compilers_and_libraries_2018/linux/mkl/lib/intel64/libmkl_blacs_intelmpi_lp64.so
                   /apps/compilers/intel/2018.2/compilers_and_libraries_2018/linux/mkl/lib/intel64/libmkl_scalapack_lp64.so
                   /usr/lib64/libpthread.so

  Using      120 parallel tasks.
  Task        0 on host ccs0109 reporting.
  Task        1 on host ccs0109 reporting.
  Task        2 on host ccs0109 reporting.
  Task        3 on host ccs0109 reporting.
  Task        4 on host ccs0109 reporting.
  Task        5 on host ccs0109 reporting.
  Task        6 on host ccs0109 reporting.
  Task        7 on host ccs0109 reporting.
  Task        8 on host ccs0109 reporting.
  Task        9 on host ccs0109 reporting.
  Task       10 on host ccs0109 reporting.
  Task       11 on host ccs0109 reporting.
  Task       12 on host ccs0109 reporting.
  Task       13 on host ccs0109 reporting.
  Task       14 on host ccs0109 reporting.
  Task       15 on host ccs0109 reporting.
  Task       16 on host ccs0109 reporting.
  Task       17 on host ccs0109 reporting.
  Task       18 on host ccs0109 reporting.
  Task       19 on host ccs0109 reporting.
  Task       20 on host ccs0109 reporting.
  Task       21 on host ccs0109 reporting.
  Task       22 on host ccs0109 reporting.
  Task       23 on host ccs0109 reporting.
  Task       24 on host ccs0109 reporting.
  Task       25 on host ccs0109 reporting.
  Task       26 on host ccs0109 reporting.
  Task       27 on host ccs0109 reporting.
  Task       28 on host ccs0109 reporting.
  Task       29 on host ccs0109 reporting.
  Task       30 on host ccs0109 reporting.
  Task       31 on host ccs0109 reporting.
  Task       32 on host ccs0109 reporting.
  Task       33 on host ccs0109 reporting.
  Task       34 on host ccs0109 reporting.
  Task       35 on host ccs0109 reporting.
  Task       36 on host ccs0109 reporting.
  Task       37 on host ccs0109 reporting.
  Task       38 on host ccs0109 reporting.
  Task       39 on host ccs0109 reporting.
  Task       40 on host ccs0117 reporting.
  Task       41 on host ccs0117 reporting.
  Task       42 on host ccs0117 reporting.
  Task       43 on host ccs0117 reporting.
  Task       44 on host ccs0117 reporting.
  Task       45 on host ccs0117 reporting.
  Task       46 on host ccs0117 reporting.
  Task       47 on host ccs0117 reporting.
  Task       48 on host ccs0117 reporting.
  Task       49 on host ccs0117 reporting.
  Task       50 on host ccs0117 reporting.
  Task       51 on host ccs0117 reporting.
  Task       52 on host ccs0117 reporting.
  Task       53 on host ccs0117 reporting.
  Task       54 on host ccs0117 reporting.
  Task       55 on host ccs0117 reporting.
  Task       56 on host ccs0117 reporting.
  Task       57 on host ccs0117 reporting.
  Task       58 on host ccs0117 reporting.
  Task       59 on host ccs0117 reporting.
  Task       60 on host ccs0117 reporting.
  Task       61 on host ccs0117 reporting.
  Task       62 on host ccs0117 reporting.
  Task       63 on host ccs0117 reporting.
  Task       64 on host ccs0117 reporting.
  Task       65 on host ccs0117 reporting.
  Task       66 on host ccs0117 reporting.
  Task       67 on host ccs0117 reporting.
  Task       68 on host ccs0117 reporting.
  Task       69 on host ccs0117 reporting.
  Task       70 on host ccs0117 reporting.
  Task       71 on host ccs0117 reporting.
  Task       72 on host ccs0117 reporting.
  Task       73 on host ccs0117 reporting.
  Task       74 on host ccs0117 reporting.
  Task       75 on host ccs0117 reporting.
  Task       76 on host ccs0117 reporting.
  Task       77 on host ccs0117 reporting.
  Task       78 on host ccs0117 reporting.
  Task       79 on host ccs0117 reporting.
  Task       80 on host ccs0121 reporting.
  Task       81 on host ccs0121 reporting.
  Task       82 on host ccs0121 reporting.
  Task       83 on host ccs0121 reporting.
  Task       84 on host ccs0121 reporting.
  Task       85 on host ccs0121 reporting.
  Task       86 on host ccs0121 reporting.
  Task       87 on host ccs0121 reporting.
  Task       88 on host ccs0121 reporting.
  Task       89 on host ccs0121 reporting.
  Task       90 on host ccs0121 reporting.
  Task       91 on host ccs0121 reporting.
  Task       92 on host ccs0121 reporting.
  Task       93 on host ccs0121 reporting.
  Task       94 on host ccs0121 reporting.
  Task       95 on host ccs0121 reporting.
  Task       96 on host ccs0121 reporting.
  Task       97 on host ccs0121 reporting.
  Task       98 on host ccs0121 reporting.
  Task       99 on host ccs0121 reporting.
  Task      100 on host ccs0121 reporting.
  Task      101 on host ccs0121 reporting.
  Task      102 on host ccs0121 reporting.
  Task      103 on host ccs0121 reporting.
  Task      104 on host ccs0121 reporting.
  Task      105 on host ccs0121 reporting.
  Task      106 on host ccs0121 reporting.
  Task      107 on host ccs0121 reporting.
  Task      108 on host ccs0121 reporting.
  Task      109 on host ccs0121 reporting.
  Task      110 on host ccs0121 reporting.
  Task      111 on host ccs0121 reporting.
  Task      112 on host ccs0121 reporting.
  Task      113 on host ccs0121 reporting.
  Task      114 on host ccs0121 reporting.
  Task      115 on host ccs0121 reporting.
  Task      116 on host ccs0121 reporting.
  Task      117 on host ccs0121 reporting.
  Task      118 on host ccs0121 reporting.
  Task      119 on host ccs0121 reporting.

  Performing system and environment tests:
  *** Environment variable OMP_NUM_THREADS is not set
  *** For performance reasons you might want to set it to 1
  | Checking for ScaLAPACK...
  | Testing pdtran()...
  | All pdtran() tests passed.

  Obtaining array dimensions for all initial allocations:
  
  -----------------------------------------------------------------------
  Parsing control.in (first pass over file, find array dimensions only).
  The contents of control.in will be repeated verbatim below
  unless switched off by setting 'verbatim_writeout .false.' .
  in the first line of control.in .
  -----------------------------------------------------------------------
  
  #===============================================================================
  # FHI-aims file: ./control.in
  # Created using the Atomic Simulation Environment (ASE)
  # Tue May 21 14:10:20 2024
  #===============================================================================
  spin                               none
  relativistic                       atomic_zora scalar
  compute_forces                     .true.
  override_warning_libxc             true
  xc                                 libxc MGGA_X_MBEEF+GGA_C_PBE_SOL
  k_grid                             15 15 3
  occupation_type                    gaussian 0.1
  plus_u_petukhov_mixing             1
  plus_u_matrix_control              True
  plus_u_use_hydros                  True
  sc_accuracy_etot                   1e-06
  sc_accuracy_eev                    0.001
  sc_accuracy_rho                    1e-06
  sc_accuracy_forces                 0.0001
  relax_geometry                     bfgs 0.01
  #===============================================================================
  
  ################################################################################
  #
  #  FHI-aims code project
  #  VB, Fritz-Haber Institut, 2009
  #
  #  Suggested "light" defaults for Li atom (to be pasted into control.in file)
  #  Be sure to double-check any results obtained with these settings for post-processing,
  #  e.g., with the "tight" defaults and larger basis sets.
  #
  ################################################################################
    species        Li
  #     global species definitions
      nucleus             3
      mass                6.941
  #
      l_hartree           4
  #
      cut_pot             3.5  1.5  1.0
      basis_dep_cutoff    1e-4
  #
      radial_base         29 5.0
      radial_multiplier   1
      angular_grids       specified
        division   0.4484  110
        division   0.5659  194
        division   0.6315  302
  #      division   0.6662  434
  #      division   0.8186  590
  #      division   0.9037  770
  #      division   6.2760  974
  #      outer_grid   974
        outer_grid   302
  ################################################################################
  #
  #  Definition of "minimal" basis
  #
  ################################################################################
  #     valence basis states
      valence      2  s   1.
  #     ion occupancy
      ion_occ      1  s   2.
  ################################################################################
  #
  #  Suggested additional basis functions. For production calculations,
  #  uncomment them one after another (the most important basis functions are
  #  listed first).
  #
  #  Constructed for dimers: 1.80 A, 2.25 A, 2.75 A, 3.50 A, 4.50 A
  #
  ################################################################################
  #  "First tier" - improvements: -189.23 meV to -6.35 meV
       hydro 2 p 1.6
       hydro 2 s 2
       hydro 3 d 2.6
  #  "Second tier" - improvements: -4.69 meV to -0.41 meV
  #     hydro 3 p 4.6
  #     hydro 2 p 1.8
  #     hydro 3 s 6.2
  #     hydro 4 d 4.7
  #     hydro 4 f 4.1
  #  "Third tier" - improvements: -0.20 meV to -0.15 meV
  #     hydro 4 d 0.95
  #     hydro 3 p 6.2
  #     hydro 3 s 1.7
  #  Further functions, listed for completeness
  #     VB: The following functions are only listed for completeness; test very
  #         carefully before any kind of production use. From the point of view
  #         of the basis construction, their main role is to fill up space,
  #         and they are solely determined by the location of the cutoff potential.
  #     hydro 3 p 0.1  # -0.15 meV
  #     hydro 4 d 5    # -0.12 meV
  #     hydro 4 f 0.1  # -0.14 meV
  #     hydro 5 g 0.1  # -0.06 meV
  
  
  ################################################################################
  #
  #  FHI-aims code project
  #  VB, Fritz-Haber Institut, 2009
  #
  #  Suggested "light" defaults for Co atom (to be pasted into control.in file)
  #  Be sure to double-check any results obtained with these settings for post-processing,
  #  e.g., with the "tight" defaults and larger basis sets.
  #
  #  2020/09/15 Added 4 p ionic function from tier 2 to default to improve description of
  #             bulk Co in "light".
  #
  ################################################################################
    species        Co
  #     global species definitions
      nucleus      27
      mass         58.933195
  #
      l_hartree    4
  #
      cut_pot      3.5  1.5  1.0
      basis_dep_cutoff    1e-4
  #
      radial_base        52 5.0
      radial_multiplier  1
      angular_grids       specified
        division   0.4668   50
        division   0.8401  110
        division   1.1973  194
        division   1.4237  302
  #      division   1.5981  434
  #      division   1.7961  590
  #      division   1.9829  770
  #      division   2.0231  974
  #      division   2.4367 1202
  #      outer_grid   974
        outer_grid   302
  ################################################################################
  #
  #  Definition of "minimal" basis
  #
  ################################################################################
  #     valence basis states
      valence      4  s   2.
      valence      3  p   6.
      valence      3  d   7.
  #     ion occupancy
      ion_occ      4  s   1.
      ion_occ      3  p   6.
      ion_occ      3  d   6.
  ################################################################################
  #
  #  Suggested additional basis functions. For production calculations,
  #  uncomment them one after another (the most important basis functions are
  #  listed first).
  #
  #  Constructed for dimers: 1.8, 2.0, 2.5, 3.5 Ang
  #
  ################################################################################
  #  "First tier" (improvements: -167.79 meV ...  -15.31 meV)
       hydro 3 p 5.8
       hydro 4 f 8.2
       hydro 3 d 5.4
  #     hydro 5 g 12
       ionic 4 s auto
  #  "Second tier" (improvements: -8.83 meV ... -0.89 meV)
       ionic 4 p auto
  #     hydro 6 h 16.4
  #     hydro 4 d 5.6
  #     hydro 4 f 17.2
  #     hydro 1 s 0.75
  #  "Third tier" (improvements: -1.03 meV ... -0.06 meV)
  #     hydro 4 d 7.8
  #     hydro 2 p 5.8
  #     hydro 4 f 8
  #     hydro 5 g 11.6
  #     hydro 4 s 4.3
  #     hydro 6 h 14.4
  #  "Fourth tier" (minor improvements)
  #     hydro 5 f 16
  #     hydro 5 d 8
  #     hydro 4 p 10
  #     hydro 5 s 7.4
  
  plus_u 3 d 1.531
  hubbard_coefficient 1 0 0 0
  
  ################################################################################
  #
  #  FHI-aims code project
  #  VB, Fritz-Haber Institut, 2009
  #
  #  Suggested "light" defaults for O atom (to be pasted into control.in file)
  #  Be sure to double-check any results obtained with these settings for post-processing,
  #  e.g., with the "tight" defaults and larger basis sets.
  #
  ################################################################################
    species        O
  #     global species definitions
      nucleus             8
      mass                15.9994
  #
      l_hartree           4
  #
      cut_pot             3.5  1.5  1.0
      basis_dep_cutoff    1e-4
  #
      radial_base         36 5.0
      radial_multiplier   1
       angular_grids specified
        division   0.2659   50
        division   0.4451  110
        division   0.6052  194
        division   0.7543  302
  #      division   0.8014  434
  #      division   0.8507  590
  #      division   0.8762  770
  #      division   0.9023  974
  #      division   1.2339 1202
  #      outer_grid 974
        outer_grid 302
  ################################################################################
  #
  #  Definition of "minimal" basis
  #
  ################################################################################
  #     valence basis states
      valence      2  s   2.
      valence      2  p   4.
  #     ion occupancy
      ion_occ      2  s   1.
      ion_occ      2  p   3.
  ################################################################################
  #
  #  Suggested additional basis functions. For production calculations,
  #  uncomment them one after another (the most important basis functions are
  #  listed first).
  #
  #  Constructed for dimers: 1.0 A, 1.208 A, 1.5 A, 2.0 A, 3.0 A
  #
  ################################################################################
  #  "First tier" - improvements: -699.05 meV to -159.38 meV
       hydro 2 p 1.8
       hydro 3 d 7.6
       hydro 3 s 6.4
  #  "Second tier" - improvements: -49.91 meV to -5.39 meV
  #     hydro 4 f 11.6
  #     hydro 3 p 6.2
  #     hydro 3 d 5.6
  #     hydro 5 g 17.6
  #     hydro 1 s 0.75
  #  "Third tier" - improvements: -2.83 meV to -0.50 meV
  #     ionic 2 p auto
  #     hydro 4 f 10.8
  #     hydro 4 d 4.7
  #     hydro 2 s 6.8
  #  "Fourth tier" - improvements: -0.40 meV to -0.12 meV
  #     hydro 3 p 5
  #     hydro 3 s 3.3
  #     hydro 5 g 15.6
  #     hydro 4 f 17.6
  #     hydro 4 d 14
  # Further basis functions - -0.08 meV and below
  #     hydro 3 s 2.1
  #     hydro 4 d 11.6
  #     hydro 3 p 16
  #     hydro 2 s 17.2
  plus_u 2 p 0
  hubbard_coefficient 1 0 0 0
  
  -----------------------------------------------------------------------
  Completed first pass over input file control.in .
  -----------------------------------------------------------------------
  
  
  -----------------------------------------------------------------------
  Parsing geometry.in (first pass over file, find array dimensions only).
  The contents of geometry.in will be repeated verbatim below
  unless switched off by setting 'verbatim_writeout .false.' .
  in the first line of geometry.in .
  -----------------------------------------------------------------------
  
  #=======================================================
  # FHI-aims file: C:\Users\amit_\OneDrive\PhD Python\DFTdevelopment\Battery\LiCoO2\geometry.in
  # Created using the Atomic Simulation Environment (ASE)
  # Wed May 22 10:03:47 2024
  #=======================================================
  lattice_vector 2.8146000000000000 0.0000000000000000 0.0000000000000000
  lattice_vector -1.4072999999999993 2.4375151014916812 0.0000000000000000
  lattice_vector 0.0000000000000000 0.0000000000000000 14.0536999999999992
  atom -0.0000000223025944 -0.0000000003908521 -0.0000000001141409 Li
  atom 1.4072999779803461 0.8125050332008488 4.6845666659499523 Li
  atom -0.0000000248765859 1.6250100672670076 9.3691333396754342 Li
  atom 0.0000000638058858 0.0000000011277258 7.0268501870366666 Co
  atom 1.4073000108164204 0.8125050284124257 11.7114169543820186 Co
  atom 0.0000000579242299 1.6250100781744103 2.3422828415494865 Co
  atom -0.0000000354835437 -0.0080841425192785 10.6916118676963041 O
  atom 0.0000000032431155 0.0080841423249890 3.3620881031214518 O
  atom 1.4072999949281930 0.8044208855890012 1.3224783998881815 O
  atom 1.4072999801059902 0.8205891768933848 8.0466548924846357 O
  atom 0.0000000124711298 1.6169259200123720 6.0070451829199998 O
  atom -0.0000000186125858 1.6330942158746904 12.7312215654099994 O
  
  -----------------------------------------------------------------------
  Completed first pass over input file geometry.in .
  -----------------------------------------------------------------------
  

  Basic array size parameters:
  | Number of species                 :        3
  | Number of atoms                   :       12
  | Number of lattice vectors         :        3
  | Max. basis fn. angular momentum   :        3
  | Max. atomic/ionic basis occupied n:        4
  | Max. number of basis fn. types    :        3
  | Max. radial fns per species/type  :        7
  | Max. logarithmic grid size        :     1400
  | Max. radial integration grid size :       52
  | Max. angular integration grid size:      302
  | Max. angular grid division number :        8
  | Radial grid for Hartree potential :     1400
  | Number of spin channels           :        1
  | Max. number of (n,l) shells per species with '+U' treatment:        1

------------------------------------------------------------
          Reading file control.in.
------------------------------------------------------------
  Spin treatment: No spin polarisation.
  Scalar relativistic treatment of kinetic energy: on-site free-atom approximation to ZORA.
  Forces will be computed.
  XC: Using LibXC. Please refer to LibXC output for further details.
  Using libxc - Initializing
  Libxc version: 4.3.4


  ** PLEASE ** be careful using LibXC. Whilst most of the LDA, GGA and MGGA functionals,
  and hybrid variations therein, should be stable (though we always recommend testing!),
  there are several fancy functionals with e.g. range-separation, like HSE03/HSE06/LC-PBEh,
  and also MGGA functionals that depend on the laplacian of the density, like BR89,
  that are not fully implemented due to the infrastrucutre for these functionals being incomplete or non-generic.
  If you want to use these functionals please contact the development team and we will work on them with you!

  You have selected libxc functional MGGA_X_MBEEF (249)
    - Description: mBEEF exchange
    - Type: MGGA(Exchange)
    - Reference to Literature:
      [1] J. Wellendorff, K. T. Lundgaard, K. W. Jacobsen, and T. Bligaard, J. Chem. Phys. 140, 144107 (2014)

  You have selected libxc functional GGA_C_PBE_SOL (133)
    - Description: Perdew, Burke & Ernzerhof SOL
    - Type: GGA(Correlation)
    - Reference to Literature:
      [1] J. P. Perdew, A. Ruzsinszky, G. I. Csonka, O. A. Vydrov, G. E. Scuseria, L. A. Constantin, X. Zhou, and K. Burke, Phys.

  Switching on meta-ggas
  Found k-point grid:        15        15         3
  Occupation type: Gaussian broadening, width =   0.100000E+00 eV.
  Fixing petukhov mixing factor to   1.000000000000
  hydrogenic basis funktions also used for DFT+U reference states
  Convergence accuracy of total energy:  0.1000E-05
  Convergence accuracy of sum of eigenvalues:  0.1000E-02
  Convergence accuracy of self-consistent charge density:  0.1000E-05
  Convergence accuracy of forces:  0.1000E-03
  Geometry relaxation: Modified BFGS - TRM (trust radius method) for lattice optimization.
  Convergence accuracy for geometry relaxation: Maximum force <   0.100000E-01 eV/A.
 
  Reading configuration options for species Li                  .
  | Found nuclear charge :   3.0000
  | Found atomic mass :    6.94100000000000      amu
  | Found l_max for Hartree potential  :   4
  | Found cutoff potl. onset [A], width [A], scale factor :    3.50000    1.50000    1.00000
  | Threshold for basis-dependent cutoff potential is   0.100000E-03
  | Found data for basic radial integration grid :    29 points, outermost radius =    5.000 A
  | Found multiplier for basic radial grid :   1
  | Found angular grid specification: user-specified.
  | Specified grid contains     4 separate shells.
  | Check grid settings after all constraints further below.
  | Found free-atom valence shell :  2 s   1.000
  | Found free-ion valence shell :  1 s   2.000
  | Found hydrogenic basis function :  2 p   1.600
  | Found hydrogenic basis function :  2 s   2.000
  | Found hydrogenic basis function :  3 d   2.600
  Species Li                  : Missing cutoff potential type.
  Defaulting to exp(1/x)/(1-x)^2 type cutoff potential.
  Species Li: No 'logarithmic' tag. Using default grid for free atom:
  | Default logarithmic grid data [bohr] : 0.1000E-03 0.1000E+03 0.1012E+01
  Species Li: On-site basis accuracy parameter (for Gram-Schmidt orthonormalisation) not specified.
  Using default value basis_acc =  0.1000000E-03.
  Species Li                  : Using default innermost maximum threshold i_radial=  2 for radial functions.
  Species Li                  : Default cutoff onset for free atom density etc. : 0.35000000E+01 AA.
  Species Li                  : Basic radial grid will be enhanced according to radial_multiplier =   1, to contain    29 grid points.
 
  Reading configuration options for species Co                  .
  | Found nuclear charge :  27.0000
  | Found atomic mass :    58.9331950000000      amu
  | Found l_max for Hartree potential  :   4
  | Found cutoff potl. onset [A], width [A], scale factor :    3.50000    1.50000    1.00000
  | Threshold for basis-dependent cutoff potential is   0.100000E-03
  | Found data for basic radial integration grid :    52 points, outermost radius =    5.000 A
  | Found multiplier for basic radial grid :   1
  | Found angular grid specification: user-specified.
  | Specified grid contains     5 separate shells.
  | Check grid settings after all constraints further below.
  | Found free-atom valence shell :  4 s   2.000
  | Found free-atom valence shell :  3 p   6.000
  | Found free-atom valence shell :  3 d   7.000
  | Found free-ion valence shell :  4 s   1.000
  | Found free-ion valence shell :  3 p   6.000
  | Found free-ion valence shell :  3 d   6.000
  | Found hydrogenic basis function :  3 p   5.800
  | Found hydrogenic basis function :  4 f   8.200
  | Found hydrogenic basis function :  3 d   5.400
  | Found ionic basis function :  4 s , default cutoff radius.
  | Found ionic basis function :  4 p , default cutoff radius.
  | Found request for '+U' treatment for  3 d shell, U =     1.531000 eV.
  | Found coefficents for linear combination of hubbard projectors 
  Species Co                  : Missing cutoff potential type.
  Defaulting to exp(1/x)/(1-x)^2 type cutoff potential.
  Species Co: No 'logarithmic' tag. Using default grid for free atom:
  | Default logarithmic grid data [bohr] : 0.1000E-03 0.1000E+03 0.1012E+01
  | Will include ionic basis functions of  2.0-fold positive Co                   ion.
  Species Co: On-site basis accuracy parameter (for Gram-Schmidt orthonormalisation) not specified.
  Using default value basis_acc =  0.1000000E-03.
  Species Co                  : Using default innermost maximum threshold i_radial=  2 for radial functions.
  Species Co                  : Default cutoff onset for free atom density etc. : 0.35000000E+01 AA.
  Species Co                  : Basic radial grid will be enhanced according to radial_multiplier =   1, to contain    52 grid points.
 
  Reading configuration options for species O                   .
  | Found nuclear charge :   8.0000
  | Found atomic mass :    15.9994000000000      amu
  | Found l_max for Hartree potential  :   4
  | Found cutoff potl. onset [A], width [A], scale factor :    3.50000    1.50000    1.00000
  | Threshold for basis-dependent cutoff potential is   0.100000E-03
  | Found data for basic radial integration grid :    36 points, outermost radius =    5.000 A
  | Found multiplier for basic radial grid :   1
  | Found angular grid specification: user-specified.
  | Specified grid contains     5 separate shells.
  | Check grid settings after all constraints further below.
  | Found free-atom valence shell :  2 s   2.000
  | Found free-atom valence shell :  2 p   4.000
  | Found free-ion valence shell :  2 s   1.000
  | Found free-ion valence shell :  2 p   3.000
  | Found hydrogenic basis function :  2 p   1.800
  | Found hydrogenic basis function :  3 d   7.600
  | Found hydrogenic basis function :  3 s   6.400
  | Found request for '+U' treatment for  2 p shell, U =     0.000000 eV.
  | Found coefficents for linear combination of hubbard projectors 
  Species O                   : Missing cutoff potential type.
  Defaulting to exp(1/x)/(1-x)^2 type cutoff potential.
  Species O : No 'logarithmic' tag. Using default grid for free atom:
  | Default logarithmic grid data [bohr] : 0.1000E-03 0.1000E+03 0.1012E+01
  Species O : On-site basis accuracy parameter (for Gram-Schmidt orthonormalisation) not specified.
  Using default value basis_acc =  0.1000000E-03.
  Species O                   : Using default innermost maximum threshold i_radial=  2 for radial functions.
  Species O                   : Default cutoff onset for free atom density etc. : 0.35000000E+01 AA.
  Species O                   : Basic radial grid will be enhanced according to radial_multiplier =   1, to contain    36 grid points.
 
  Finished reading input file 'control.in'.
 
------------------------------------------------------------


------------------------------------------------------------
          Reading geometry description geometry.in.
------------------------------------------------------------
  | The smallest distance between any two atoms is         1.91166171 AA.
  | The first atom of this pair is atom number                      9 .
  | The second atom of this pair is atom number                     6 .
  | Wigner-Seitz cell of the first atom image           1     0     0 .
  | (The Wigner-Seitz cell of the second atom is 0 0 0  by definition.)

  Symmetry information by spglib:
  | Precision set to  0.1E-04
  | Number of Operations  : 12
  | Space group           : 12
  | International         : C2/m     DW
  | Schoenflies           : C2h^3
  Input structure read successfully.
  The structure contains       12 atoms,  and a total of        138.000 electrons.

  Input geometry:
  | Unit cell:
  |        2.81460000        0.00000000        0.00000000
  |       -1.40730000        2.43751510        0.00000000
  |        0.00000000        0.00000000       14.05370000
  | Atomic structure:
  |       Atom                x [A]            y [A]            z [A]
  |    1: Species Li           -0.00000002       -0.00000000       -0.00000000
  |    2: Species Li            1.40729998        0.81250503        4.68456667
  |    3: Species Li           -0.00000002        1.62501007        9.36913334
  |    4: Species Co            0.00000006        0.00000000        7.02685019
  |    5: Species Co            1.40730001        0.81250503       11.71141695
  |    6: Species Co            0.00000006        1.62501008        2.34228284
  |    7: Species O            -0.00000004       -0.00808414       10.69161187
  |    8: Species O             0.00000000        0.00808414        3.36208810
  |    9: Species O             1.40729999        0.80442089        1.32247840
  |   10: Species O             1.40729998        0.82058918        8.04665489
  |   11: Species O             0.00000001        1.61692592        6.00704518
  |   12: Species O            -0.00000002        1.63309422       12.73122157

  Lattice parameters for 3D lattice (in Angstroms) :     2.814600    2.814600   14.053700
  Angle(s) between unit vectors (in degrees)       :    90.000000   90.000000  120.000000


  Quantities derived from the lattice vectors:
  | Reciprocal lattice vector 1:  2.232355  1.288851  0.000000
  | Reciprocal lattice vector 2:  0.000000  2.577701  0.000000
  | Reciprocal lattice vector 3:  0.000000  0.000000  0.447084
  | Unit cell volume                               :   0.964172E+02  A^3

  Fractional coordinates:
                         L1                L2                L3
       atom_frac        -0.00000001       -0.00000000       -0.00000000  Li
       atom_frac         0.66666666        0.33333333        0.33333333  Li
       atom_frac         0.33333332        0.66666667        0.66666667  Li
       atom_frac         0.00000002        0.00000000        0.50000001  Co
       atom_frac         0.66666667        0.33333333        0.83333335  Co
       atom_frac         0.33333336        0.66666667        0.16666663  Co
       atom_frac        -0.00165829       -0.00331655        0.76076847  O
       atom_frac         0.00165828        0.00331655        0.23923153  O
       atom_frac         0.66500839        0.33001678        0.09410180  O
       atom_frac         0.66832494        0.33664988        0.57256487  O
       atom_frac         0.33167506        0.66335011        0.42743514  O
       atom_frac         0.33499160        0.66998322        0.90589820  O

 
  Finished reading input file 'control.in'.
 

------------------------------------------------------------
          Reading geometry description geometry.in.
------------------------------------------------------------
 
  Consistency checks for stacksize environment parameter are next.
 
  | Maximum stacksize for task 0: unlimited
  | Maximum stacksize for task 1: unlimited
  | Maximum stacksize for task 2: unlimited
  | Maximum stacksize for task 3: unlimited
  | Maximum stacksize for task 4: unlimited
  | Maximum stacksize for task 5: unlimited
  | Maximum stacksize for task 6: unlimited
  | Maximum stacksize for task 7: unlimited
  | Maximum stacksize for task 8: unlimited
  | Maximum stacksize for task 9: unlimited
  | Maximum stacksize for task 10: unlimited
  | Maximum stacksize for task 11: unlimited
  | Maximum stacksize for task 12: unlimited
  | Maximum stacksize for task 13: unlimited
  | Maximum stacksize for task 14: unlimited
  | Maximum stacksize for task 15: unlimited
  | Maximum stacksize for task 16: unlimited
  | Maximum stacksize for task 17: unlimited
  | Maximum stacksize for task 18: unlimited
  | Maximum stacksize for task 19: unlimited
  | Maximum stacksize for task 20: unlimited
  | Maximum stacksize for task 21: unlimited
  | Maximum stacksize for task 22: unlimited
  | Maximum stacksize for task 23: unlimited
  | Maximum stacksize for task 24: unlimited
  | Maximum stacksize for task 25: unlimited
  | Maximum stacksize for task 26: unlimited
  | Maximum stacksize for task 27: unlimited
  | Maximum stacksize for task 28: unlimited
  | Maximum stacksize for task 29: unlimited
  | Maximum stacksize for task 30: unlimited
  | Maximum stacksize for task 31: unlimited
  | Maximum stacksize for task 32: unlimited
  | Maximum stacksize for task 33: unlimited
  | Maximum stacksize for task 34: unlimited
  | Maximum stacksize for task 35: unlimited
  | Maximum stacksize for task 36: unlimited
  | Maximum stacksize for task 37: unlimited
  | Maximum stacksize for task 38: unlimited
  | Maximum stacksize for task 39: unlimited
  | Maximum stacksize for task 40: unlimited
  | Maximum stacksize for task 41: unlimited
  | Maximum stacksize for task 42: unlimited
  | Maximum stacksize for task 43: unlimited
  | Maximum stacksize for task 44: unlimited
  | Maximum stacksize for task 45: unlimited
  | Maximum stacksize for task 46: unlimited
  | Maximum stacksize for task 47: unlimited
  | Maximum stacksize for task 48: unlimited
  | Maximum stacksize for task 49: unlimited
  | Maximum stacksize for task 50: unlimited
  | Maximum stacksize for task 51: unlimited
  | Maximum stacksize for task 52: unlimited
  | Maximum stacksize for task 53: unlimited
  | Maximum stacksize for task 54: unlimited
  | Maximum stacksize for task 55: unlimited
  | Maximum stacksize for task 56: unlimited
  | Maximum stacksize for task 57: unlimited
  | Maximum stacksize for task 58: unlimited
  | Maximum stacksize for task 59: unlimited
  | Maximum stacksize for task 60: unlimited
  | Maximum stacksize for task 61: unlimited
  | Maximum stacksize for task 62: unlimited
  | Maximum stacksize for task 63: unlimited
  | Maximum stacksize for task 64: unlimited
  | Maximum stacksize for task 65: unlimited
  | Maximum stacksize for task 66: unlimited
  | Maximum stacksize for task 67: unlimited
  | Maximum stacksize for task 68: unlimited
  | Maximum stacksize for task 69: unlimited
  | Maximum stacksize for task 70: unlimited
  | Maximum stacksize for task 71: unlimited
  | Maximum stacksize for task 72: unlimited
  | Maximum stacksize for task 73: unlimited
  | Maximum stacksize for task 74: unlimited
  | Maximum stacksize for task 75: unlimited
  | Maximum stacksize for task 76: unlimited
  | Maximum stacksize for task 77: unlimited
  | Maximum stacksize for task 78: unlimited
  | Maximum stacksize for task 79: unlimited
  | Maximum stacksize for task 80: unlimited
  | Maximum stacksize for task 81: unlimited
  | Maximum stacksize for task 82: unlimited
  | Maximum stacksize for task 83: unlimited
  | Maximum stacksize for task 84: unlimited
  | Maximum stacksize for task 85: unlimited
  | Maximum stacksize for task 86: unlimited
  | Maximum stacksize for task 87: unlimited
  | Maximum stacksize for task 88: unlimited
  | Maximum stacksize for task 89: unlimited
  | Maximum stacksize for task 90: unlimited
  | Maximum stacksize for task 91: unlimited
  | Maximum stacksize for task 92: unlimited
  | Maximum stacksize for task 93: unlimited
  | Maximum stacksize for task 94: unlimited
  | Maximum stacksize for task 95: unlimited
  | Maximum stacksize for task 96: unlimited
  | Maximum stacksize for task 97: unlimited
  | Maximum stacksize for task 98: unlimited
  | Maximum stacksize for task 99: unlimited
  | Maximum stacksize for task 100: unlimited
  | Maximum stacksize for task 101: unlimited
  | Maximum stacksize for task 102: unlimited
  | Maximum stacksize for task 103: unlimited
  | Maximum stacksize for task 104: unlimited
  | Maximum stacksize for task 105: unlimited
  | Maximum stacksize for task 106: unlimited
  | Maximum stacksize for task 107: unlimited
  | Maximum stacksize for task 108: unlimited
  | Maximum stacksize for task 109: unlimited
  | Maximum stacksize for task 110: unlimited
  | Maximum stacksize for task 111: unlimited
  | Maximum stacksize for task 112: unlimited
  | Maximum stacksize for task 113: unlimited
  | Maximum stacksize for task 114: unlimited
  | Maximum stacksize for task 115: unlimited
  | Maximum stacksize for task 116: unlimited
  | Maximum stacksize for task 117: unlimited
  | Maximum stacksize for task 118: unlimited
  | Maximum stacksize for task 119: unlimited
  | Current stacksize for task 0: unlimited
  | Current stacksize for task 1: unlimited
  | Current stacksize for task 2: unlimited
  | Current stacksize for task 3: unlimited
  | Current stacksize for task 4: unlimited
  | Current stacksize for task 5: unlimited
  | Current stacksize for task 6: unlimited
  | Current stacksize for task 7: unlimited
  | Current stacksize for task 8: unlimited
  | Current stacksize for task 9: unlimited
  | Current stacksize for task 10: unlimited
  | Current stacksize for task 11: unlimited
  | Current stacksize for task 12: unlimited
  | Current stacksize for task 13: unlimited
  | Current stacksize for task 14: unlimited
  | Current stacksize for task 15: unlimited
  | Current stacksize for task 16: unlimited
  | Current stacksize for task 17: unlimited
  | Current stacksize for task 18: unlimited
  | Current stacksize for task 19: unlimited
  | Current stacksize for task 20: unlimited
  | Current stacksize for task 21: unlimited
  | Current stacksize for task 22: unlimited
  | Current stacksize for task 23: unlimited
  | Current stacksize for task 24: unlimited
  | Current stacksize for task 25: unlimited
  | Current stacksize for task 26: unlimited
  | Current stacksize for task 27: unlimited
  | Current stacksize for task 28: unlimited
  | Current stacksize for task 29: unlimited
  | Current stacksize for task 30: unlimited
  | Current stacksize for task 31: unlimited
  | Current stacksize for task 32: unlimited
  | Current stacksize for task 33: unlimited
  | Current stacksize for task 34: unlimited
  | Current stacksize for task 35: unlimited
  | Current stacksize for task 36: unlimited
  | Current stacksize for task 37: unlimited
  | Current stacksize for task 38: unlimited
  | Current stacksize for task 39: unlimited
  | Current stacksize for task 40: unlimited
  | Current stacksize for task 41: unlimited
  | Current stacksize for task 42: unlimited
  | Current stacksize for task 43: unlimited
  | Current stacksize for task 44: unlimited
  | Current stacksize for task 45: unlimited
  | Current stacksize for task 46: unlimited
  | Current stacksize for task 47: unlimited
  | Current stacksize for task 48: unlimited
  | Current stacksize for task 49: unlimited
  | Current stacksize for task 50: unlimited
  | Current stacksize for task 51: unlimited
  | Current stacksize for task 52: unlimited
  | Current stacksize for task 53: unlimited
  | Current stacksize for task 54: unlimited
  | Current stacksize for task 55: unlimited
  | Current stacksize for task 56: unlimited
  | Current stacksize for task 57: unlimited
  | Current stacksize for task 58: unlimited
  | Current stacksize for task 59: unlimited
  | Current stacksize for task 60: unlimited
  | Current stacksize for task 61: unlimited
  | Current stacksize for task 62: unlimited
  | Current stacksize for task 63: unlimited
  | Current stacksize for task 64: unlimited
  | Current stacksize for task 65: unlimited
  | Current stacksize for task 66: unlimited
  | Current stacksize for task 67: unlimited
  | Current stacksize for task 68: unlimited
  | Current stacksize for task 69: unlimited
  | Current stacksize for task 70: unlimited
  | Current stacksize for task 71: unlimited
  | Current stacksize for task 72: unlimited
  | Current stacksize for task 73: unlimited
  | Current stacksize for task 74: unlimited
  | Current stacksize for task 75: unlimited
  | Current stacksize for task 76: unlimited
  | Current stacksize for task 77: unlimited
  | Current stacksize for task 78: unlimited
  | Current stacksize for task 79: unlimited
  | Current stacksize for task 80: unlimited
  | Current stacksize for task 81: unlimited
  | Current stacksize for task 82: unlimited
  | Current stacksize for task 83: unlimited
  | Current stacksize for task 84: unlimited
  | Current stacksize for task 85: unlimited
  | Current stacksize for task 86: unlimited
  | Current stacksize for task 87: unlimited
  | Current stacksize for task 88: unlimited
  | Current stacksize for task 89: unlimited
  | Current stacksize for task 90: unlimited
  | Current stacksize for task 91: unlimited
  | Current stacksize for task 92: unlimited
  | Current stacksize for task 93: unlimited
  | Current stacksize for task 94: unlimited
  | Current stacksize for task 95: unlimited
  | Current stacksize for task 96: unlimited
  | Current stacksize for task 97: unlimited
  | Current stacksize for task 98: unlimited
  | Current stacksize for task 99: unlimited
  | Current stacksize for task 100: unlimited
  | Current stacksize for task 101: unlimited
  | Current stacksize for task 102: unlimited
  | Current stacksize for task 103: unlimited
  | Current stacksize for task 104: unlimited
  | Current stacksize for task 105: unlimited
  | Current stacksize for task 106: unlimited
  | Current stacksize for task 107: unlimited
  | Current stacksize for task 108: unlimited
  | Current stacksize for task 109: unlimited
  | Current stacksize for task 110: unlimited
  | Current stacksize for task 111: unlimited
  | Current stacksize for task 112: unlimited
  | Current stacksize for task 113: unlimited
  | Current stacksize for task 114: unlimited
  | Current stacksize for task 115: unlimited
  | Current stacksize for task 116: unlimited
  | Current stacksize for task 117: unlimited
  | Current stacksize for task 118: unlimited
  | Current stacksize for task 119: unlimited
 
  Consistency checks for the contents of control.in are next.
 
  MPI_IN_PLACE appears to work with this MPI implementation.
  | Keeping use_mpi_in_place .true. (see manual).
  Target number of points in a grid batch is not set. Defaulting to  100
  Method for grid partitioning is not set. Defaulting to parallel hash+maxmin partitioning.
  Batch size limit is not set. Defaulting to    200
  By default, will store active basis functions for each batch.
  If in need of memory, prune_basis_once .false. can be used to disable this option.
  communication_type for Hartree potential was not specified.
  Defaulting to calc_hartree .
  Defaulting to Pulay charge density mixer.
  Pulay mixer: Number of relevant iterations not set.
  Defaulting to    8 iterations.
  Pulay mixer: Number of initial linear mixing iterations not set.
  Defaulting to    0 iterations.
  Work space size for distributed Hartree potential not set.
  Defaulting to   0.200000E+03 MB.
  Mixing parameter for charge density mixing has not been set.
  Using default: charge_mix_param =     0.0500.
  The mixing parameter will be adjusted in iteration number     2 of the first full s.c.f. cycle only.
  Algorithm-dependent basis array size parameters:
  | n_max_pulay                         :        8
  Maximum number of self-consistency iterations not provided.
  Presetting  1000 iterations.
  Presetting      1001 iterations before the initial mixing cycle
  is restarted anyway using the sc_init_iter criterion / keyword.
  Presetting a factor      1.000 between actual scf density residual
  and density convergence criterion sc_accuracy_rho below which sc_init_iter
  takes no effect.
  No maximum number of relaxation steps, defaulting to     1000
  Default initial Hessian is Lindh matrix (thres = 15.00) plus  0.200000E+01 eV/A^2 times unity.
  No maximum energy tolerance for TRM/BFGS moves, defaulting to   0.100000E-02
  Maximum energy tolerance by which TRM/BFGS trajectory may increase over multiple steps:   0.300000E-02
  No harmonic length scale. Defaulting to   0.250000E-01 A.
  No trust radius initializer. Defaulting to   0.200000E+00 A.
  Forces evaluation will include force correction term due to incomplete self-consistency (default).
  Handling of forces: Unphysical translation and rotation will be removed from forces.
  No accuracy limit for integral partition fn. given. Defaulting to  0.1000E-14.
  No threshold value for u(r) in integrations given. Defaulting to  0.1000E-05.
  No accuracy for occupation numbers given. Defaulting to  0.1000E-12.
  No threshold value for occupation numbers given. Defaulting to  0.0000E+00.
  No accuracy for fermi level given. Defaulting to  0.1000E-19.
  Maximum # of iterations to find E_F not set. Defaulting to  200.
  Preferred method for the eigenvalue solver ('KS_method') not specified in 'control.in'.
  Defaulting to serial version, LAPACK (via ELSI), since more k-points than CPUs available.
  Will not use alltoall communication since running on < 1024 CPUs.
  Threshold for basis singularities not set.
  Default threshold for basis singularities:  0.1000E-04
  partition_type (choice of integration weights) for integrals was not specified.
  | Using a version of the partition function of Stratmann and coworkers ('stratmann_sparse').
  | At each grid point, the set of atoms used to build the partition table is smoothly restricted to
  | only those atoms whose free-atom density would be non-zero at that grid point.
  Partitioning for Hartree potential was not defined. Using partition_type for integrals.
  | Adjusted default value of keyword multip_moments_threshold to:       0.10000000E-11
  | This value may affect high angular momentum components of the Hartree potential in periodic systems.
  Angular momentum expansion for Kerker preconditioner not set explicitly.
  | Using default value of   0
  No explicit requirement for turning off preconditioner.
  | By default, it will be turned off when the charge convergence reaches
  | sc_accuracy_rho  =   0.100000E-05
  | sc_accuracy_eev  =   0.100000E-02
  | sc_accuracy_etot =   0.100000E-05
  No special mixing parameter while Kerker preconditioner is on.
  Using default: charge_mix_param =     0.0500.
  No q(lm)/r^(l+1) cutoff set for long-range Hartree potential.
  | Using default value of  0.100000E-09 .
  | Verify using the multipole_threshold keyword.
  Defaulting to new monopole extrapolation.
  Density update method: automatic selection selected.
  Using density matrix based charge density update.
 * Warning: DFT+U requires using density matrix based charge density update.
  Using density matrix based charge density update.
  Using packed matrix style: index .
  Geometry relaxation: A file "geometry.in.next_step" is written out by default after each step.
  | This file contains the geometry of the current relaxation step as well as
  | the current Hessian matrix needed to restart the relaxation algorithm.
  | If you do not want part or all of this information, use the keywords
  | "write_restart_geometry" or "hessian_to_restart_geometry" to switch the output off.
  Defaulting to use time-reversal symmetry for k-point grid.
  Charge integration errors on the 3D integration grid will be compensated
  by explicit normalization and distribution of residual charges.
  Use the "compensate_multipole_errors" flag to change this behaviour.
  Set 'collect_eigenvectors' to be '.true.' for all serial calculations. This is mandatory.
  Set 'collect_eigenvectors' to be '.true.' for KS_method lapack_fast and serial.
 
  Consistency checks for the contents of geometry.in are next.
 

  Range separation radius for Ewald summation (hartree_convergence_parameter):      2.71430466 bohr.
  Number of empty states per atom not set in control.in - providing a guess from actual geometry.
  | Total number of empty states used during s.c.f. cycle:       39
  If you use a very high smearing, use empty_states (per atom!) in control.in to increase this value.

  Structure-dependent array size parameters: 
  | Maximum number of distinct radial functions  :       23
  | Maximum number of basis functions            :      219
  | Number of Kohn-Sham states (occupied + empty):      108
------------------------------------------------------------

------------------------------------------------------------
          Preparing all fixed parts of the calculation.
------------------------------------------------------------
  Determining machine precision:
    2.225073858507201E-308
  Setting up grids for atomic and cluster calculations.

  Creating wave function, potential, and density for free atoms.

  Species: Li

  List of occupied orbitals and eigenvalues:
    n    l              occ      energy [Ha]    energy [eV]
    1    0           2.0000        -1.849178       -50.3187
    2    0           1.0000        -0.083380        -2.2689


  Species: Co

  List of occupied orbitals and eigenvalues:
    n    l              occ      energy [Ha]    energy [eV]
    1    0           2.0000      -280.947138     -7644.9606
    2    0           2.0000       -33.003045      -898.0585
    3    0           2.0000        -3.736818      -101.6840
    4    0           2.0000        -0.202214        -5.5025
    2    1           6.0000       -28.302365      -770.1465
    3    1           6.0000        -2.400315       -65.3159
    3    2           7.0000        -0.304321        -8.2810


  Species: O

  List of occupied orbitals and eigenvalues:
    n    l              occ      energy [Ha]    energy [eV]
    1    0           2.0000       -18.786109      -511.1960
    2    0           2.0000        -0.872635       -23.7456
    2    1           4.0000        -0.337687        -9.1889


  Adding cutoff potential to free-atom effective potential.
  Creating fixed part of basis set: Ionic, confined, hydrogenic.
 
  Li                   hydrogenic:
 
  List of hydrogenic basis orbitals: 
    n    l      effective z      eigenvalue [eV]  inner max. [A]     outer max. [A]     outer radius [A]   
    2    1         1.600000        -8.6069           1.303334           1.303334           4.591005
    2    0         2.000000       -13.5631           0.203259           1.385485           4.591005
    3    2         2.600000        -9.9241           1.769240           1.769240           4.591005
 
 
  Co                   ion:

  List of free ionic orbitals and eigenvalues:
    n    l      energy [Ha]    energy [eV]
    1    0      -281.954340     -7672.3679
    2    0       -34.019462      -925.7167
    3    0        -4.716383      -128.3393
    4    0        -0.863391       -23.4941
    2    1       -29.317043      -797.7573
    3    1        -3.372789       -91.7782
    3    2        -1.241531       -33.7838


  List of ionic basis orbitals and eigenvalues:
    n    l      energy [Ha]    energy [eV]    outer radius [A]
    4    0        -0.863349       -23.4929       4.550088
    4    1        -0.612397       -16.6642       4.550088

 
  Co                   hydrogenic:
 
  List of hydrogenic basis orbitals: 
    n    l      effective z      eigenvalue [eV]  inner max. [A]     outer max. [A]     outer radius [A]   
    3    1         5.800000       -50.8545           0.273460           1.088525           4.176910
    4    3         8.200000       -57.1774           1.036577           1.036577           4.228286
    3    2         5.400000       -44.0819           0.884263           0.884263           4.176910
 
 
  O                    hydrogenic:
 
  List of hydrogenic basis orbitals: 
    n    l      effective z      eigenvalue [eV]  inner max. [A]     outer max. [A]     outer radius [A]   
    2    1         1.800000       -10.9749           1.164242           1.164242           4.578029
    3    2         7.600000       -87.3180           0.624125           0.624125           3.251020
    3    0         6.400000       -61.9207           0.061167           1.081902           4.001998
 
  Creating atomic-like basis functions for current effective potential.

  Species Li                  :

  List of atomic basis orbitals and eigenvalues:
    n    l      energy [Ha]    energy [eV]    outer radius [A]
    1    0        -1.849178       -50.3187       4.062706
    2    0        -0.083380        -2.2689       4.591005


  Species Co                  :

  List of atomic basis orbitals and eigenvalues:
    n    l      energy [Ha]    energy [eV]    outer radius [A]
    1    0      -280.947138     -7644.9606       0.394613
    2    0       -33.003045      -898.0585       1.157136
    3    0        -3.736818      -101.6840       3.311155
    4    0        -0.202214        -5.5025       4.606054
    2    1       -28.302365      -770.1465       1.215127
    3    1        -2.400315       -65.3159       3.881500
    3    2        -0.304321        -8.2810       4.494802


  Species O                   :

  List of atomic basis orbitals and eigenvalues:
    n    l      energy [Ha]    energy [eV]    outer radius [A]
    1    0       -18.786109      -511.1960       1.433179
    2    0        -0.872635       -23.7456       4.413171
    2    1        -0.337687        -9.1889       4.522403

  Assembling full basis from fixed parts.
 * Warning - Since '+U' treatment was requested,
 * the basis-dependent cutoff is turned off automatically.
  | Species Li :   atomic orbital   1 s accepted.
  | Species Li :   atomic orbital   2 s accepted.
  | Species Li :    hydro orbital   2 s accepted.
  | Species Li :    hydro orbital   2 p accepted.
  | Species Li :    hydro orbital   3 d accepted.
 * Warning - Since '+U' treatment was requested,
 * the basis-dependent cutoff is turned off automatically.
  | Species Co :   atomic orbital   1 s accepted.
  | Species Co :   atomic orbital   2 s accepted.
  | Species Co :   atomic orbital   3 s accepted.
  | Species Co :   atomic orbital   4 s accepted.
  | Species Co :    ionic orbital   4 s accepted.
  | Species Co :   atomic orbital   2 p accepted.
  | Species Co :   atomic orbital   3 p accepted.
  | Species Co :    ionic orbital   4 p accepted.
  | Species Co :    hydro orbital   3 p accepted.
  | Species Co :   atomic orbital   3 d accepted.
  | Species Co :    hydro orbital   3 d accepted.
  | Species Co :    hydro orbital   4 f accepted.
 * Warning - Since '+U' treatment was requested,
 * the basis-dependent cutoff is turned off automatically.
  | Species O :   atomic orbital   1 s accepted.
  | Species O :   atomic orbital   2 s accepted.
  | Species O :    hydro orbital   3 s accepted.
  | Species O :   atomic orbital   2 p accepted.
  | Species O :    hydro orbital   2 p accepted.
  | Species O :    hydro orbital   3 d accepted.
 
  Basis size parameters after reduction:
  | Total number of radial functions:       23
  | Total number of basis functions :      219
 
  Per-task memory consumption for arrays in subroutine allocate_ext:
  |           8.250324MB.
  Testing on-site integration grid accuracy.
  |  Species  Function  <phi|h_atom|phi> (log., in eV)  <phi|h_atom|phi> (rad., in eV)
           1        1                -50.3186999132                -50.3186979427
           1        2                 -2.3071316168                 -2.3037320941
           1        3                 15.7362313817                 15.7331874732
           1        4                  0.3262086529                  0.3282071330
           1        5                  6.2738034359                  6.2759396895
           2        6              -7644.9605864105              -7644.9543774452
           2        7               -898.0585355980               -898.0584659173
           2        8               -101.6839821785               -101.6839806607
           2        9                 -5.5110407092                 -5.5222650232
           2       10                  7.1855255383                  7.0927249030 ***
           2       11               -770.1465382765               -770.1465371821
           2       12                -65.3158831882                -65.3158829796
           2       13                  0.4601908362                  0.4562450609
           2       14                 16.2673413323                 16.1984227084 ***
           2       15                 -8.2810740002                 -8.2811706592
           2       16                 26.8609724462                 26.8604924962
           2       17                 32.2898310581                 32.2899950148
           3       18               -511.1960429777               -511.1959399133
           3       19                -23.7455964041                -23.7455972542
           3       20                 17.3746964700                 17.3748057881
           3       21                 -9.1890598667                 -9.1892026751
           3       22                  8.1915160719                  8.1720639763
           3       23                 45.8005976646                 45.8005620229
 * Note: Onsite integrals marked "***" above are less accurate than
 * onsite_accuracy_threshold =    0.03000 eV. Usually, this is harmless.
 * When in doubt, tighten the "radial" and/or "radial_multiplier" flags to check.

  Preparing densities etc. for the partition functions (integrals / Hartree potential).

  Preparations completed.
  max(cpu_time)          :      0.437 s.
  Wall clock time (cpu1) :      0.438 s.
------------------------------------------------------------

------------------------------------------------------------
          Begin self-consistency loop: Initialization.

          Date     :  20240813, Time     :  165833.458
------------------------------------------------------------

  Initializing index lists of integration centers etc. from given atomic structure:
  Mapping all atomic coordinates to central unit cell.

  Initializing the k-points
  Using symmetry for reducing the k-points
  | k-points reduced from:      675 to      338
  | Number of k-points                             :       338
  The eigenvectors in the calculations are COMPLEX.
  | K-points in task   0:         2
  | K-points in task   1:         3
  | K-points in task   2:         3
  | K-points in task   3:         3
  | K-points in task   4:         3
  | K-points in task   5:         3
  | K-points in task   6:         3
  | K-points in task   7:         3
  | K-points in task   8:         3
  | K-points in task   9:         3
  | K-points in task  10:         3
  | K-points in task  11:         3
  | K-points in task  12:         3
  | K-points in task  13:         3
  | K-points in task  14:         3
  | K-points in task  15:         3
  | K-points in task  16:         3
  | K-points in task  17:         3
  | K-points in task  18:         3
  | K-points in task  19:         3
  | K-points in task  20:         3
  | K-points in task  21:         3
  | K-points in task  22:         3
  | K-points in task  23:         3
  | K-points in task  24:         3
  | K-points in task  25:         3
  | K-points in task  26:         3
  | K-points in task  27:         3
  | K-points in task  28:         3
  | K-points in task  29:         3
  | K-points in task  30:         3
  | K-points in task  31:         3
  | K-points in task  32:         3
  | K-points in task  33:         3
  | K-points in task  34:         3
  | K-points in task  35:         3
  | K-points in task  36:         3
  | K-points in task  37:         3
  | K-points in task  38:         3
  | K-points in task  39:         3
  | K-points in task  40:         3
  | K-points in task  41:         3
  | K-points in task  42:         3
  | K-points in task  43:         3
  | K-points in task  44:         3
  | K-points in task  45:         3
  | K-points in task  46:         3
  | K-points in task  47:         3
  | K-points in task  48:         3
  | K-points in task  49:         3
  | K-points in task  50:         3
  | K-points in task  51:         3
  | K-points in task  52:         3
  | K-points in task  53:         3
  | K-points in task  54:         3
  | K-points in task  55:         3
  | K-points in task  56:         3
  | K-points in task  57:         3
  | K-points in task  58:         3
  | K-points in task  59:         3
  | K-points in task  60:         3
  | K-points in task  61:         3
  | K-points in task  62:         3
  | K-points in task  63:         3
  | K-points in task  64:         3
  | K-points in task  65:         3
  | K-points in task  66:         3
  | K-points in task  67:         3
  | K-points in task  68:         3
  | K-points in task  69:         3
  | K-points in task  70:         3
  | K-points in task  71:         3
  | K-points in task  72:         3
  | K-points in task  73:         3
  | K-points in task  74:         3
  | K-points in task  75:         3
  | K-points in task  76:         3
  | K-points in task  77:         3
  | K-points in task  78:         3
  | K-points in task  79:         3
  | K-points in task  80:         3
  | K-points in task  81:         3
  | K-points in task  82:         3
  | K-points in task  83:         3
  | K-points in task  84:         3
  | K-points in task  85:         3
  | K-points in task  86:         3
  | K-points in task  87:         3
  | K-points in task  88:         3
  | K-points in task  89:         3
  | K-points in task  90:         3
  | K-points in task  91:         3
  | K-points in task  92:         3
  | K-points in task  93:         3
  | K-points in task  94:         3
  | K-points in task  95:         3
  | K-points in task  96:         3
  | K-points in task  97:         3
  | K-points in task  98:         3
  | K-points in task  99:         2
  | K-points in task 100:         2
  | K-points in task 101:         2
  | K-points in task 102:         2
  | K-points in task 103:         2
  | K-points in task 104:         2
  | K-points in task 105:         2
  | K-points in task 106:         2
  | K-points in task 107:         2
  | K-points in task 108:         2
  | K-points in task 109:         2
  | K-points in task 110:         2
  | K-points in task 111:         2
  | K-points in task 112:         2
  | K-points in task 113:         2
  | K-points in task 114:         2
  | K-points in task 115:         2
  | K-points in task 116:         2
  | K-points in task 117:         2
  | K-points in task 118:         2
  | K-points in task 119:         2
  | Number of basis functions in the Hamiltonian integrals :      5079
  | Number of basis functions in a single unit cell        :       219
  | Number of centers in hartree potential         :      1907
  | Number of centers in hartree multipole         :      1478
  | Number of centers in electron density summation:      1048
  | Number of centers in basis integrals           :      1084
  | Number of centers in integrals                 :       399
  | Number of centers in hamiltonian               :      1054
  | Consuming        897 KiB for k_phase.
  | Number of super-cells (origin) [n_cells]                     :         845
  | Number of super-cells (after PM_index) [n_cells]             :         170
  | Number of super-cells in hamiltonian [n_cells_in_hamiltonian]:         170
  | Size of matrix packed + index [n_hamiltonian_matrix_size] :      645172

  Initializing relaxation algorithms.
  Finished initialization of distributed Hessian storage.
  | Global dimension:        36
  | BLACS block size:         1
  | Number of workers:       36

  | Estimated reciprocal-space cutoff momentum G_max:         3.49822420 bohr^-1 .
  | Reciprocal lattice points for long-range Hartree potential:     430
  Partitioning the integration grid into batches with parallel hashing+maxmin method.
  | Number of batches:      998
  | Maximal batch size:     119
  | Minimal batch size:      44
  | Average batch size:      78.006
  | Standard deviation of batch sizes:      17.163

  Integration load balanced across   120 MPI tasks.
  Work distribution over tasks is as follows:
  Task     0 has        623 integration points.
  Task     1 has        624 integration points.
  Task     2 has        658 integration points.
  Task     3 has        700 integration points.
  Task     4 has        680 integration points.
  Task     5 has        636 integration points.
  Task     6 has        642 integration points.
  Task     7 has        640 integration points.
  Task     8 has        660 integration points.
  Task     9 has        621 integration points.
  Task    10 has        641 integration points.
  Task    11 has        631 integration points.
  Task    12 has        626 integration points.
  Task    13 has        681 integration points.
  Task    14 has        651 integration points.
  Task    15 has        662 integration points.
  Task    16 has        645 integration points.
  Task    17 has        622 integration points.
  Task    18 has        677 integration points.
  Task    19 has        636 integration points.
  Task    20 has        621 integration points.
  Task    21 has        628 integration points.
  Task    22 has        674 integration points.
  Task    23 has        639 integration points.
  Task    24 has        621 integration points.
  Task    25 has        630 integration points.
  Task    26 has        659 integration points.
  Task    27 has        633 integration points.
  Task    28 has        678 integration points.
  Task    29 has        636 integration points.
  Task    30 has        638 integration points.
  Task    31 has        658 integration points.
  Task    32 has        625 integration points.
  Task    33 has        626 integration points.
  Task    34 has        637 integration points.
  Task    35 has        641 integration points.
  Task    36 has        639 integration points.
  Task    37 has        623 integration points.
  Task    38 has        635 integration points.
  Task    39 has        627 integration points.
  Task    40 has        660 integration points.
  Task    41 has        668 integration points.
  Task    42 has        644 integration points.
  Task    43 has        634 integration points.
  Task    44 has        644 integration points.
  Task    45 has        683 integration points.
  Task    46 has        621 integration points.
  Task    47 has        646 integration points.
  Task    48 has        627 integration points.
  Task    49 has        705 integration points.
  Task    50 has        678 integration points.
  Task    51 has        633 integration points.
  Task    52 has        650 integration points.
  Task    53 has        684 integration points.
  Task    54 has        697 integration points.
  Task    55 has        630 integration points.
  Task    56 has        630 integration points.
  Task    57 has        645 integration points.
  Task    58 has        624 integration points.
  Task    59 has        664 integration points.
  Task    60 has        624 integration points.
  Task    61 has        625 integration points.
  Task    62 has        626 integration points.
  Task    63 has        675 integration points.
  Task    64 has        628 integration points.
  Task    65 has        629 integration points.
  Task    66 has        635 integration points.
  Task    67 has        648 integration points.
  Task    68 has        643 integration points.
  Task    69 has        625 integration points.
  Task    70 has        680 integration points.
  Task    71 has        708 integration points.
  Task    72 has        633 integration points.
  Task    73 has        637 integration points.
  Task    74 has        624 integration points.
  Task    75 has        665 integration points.
  Task    76 has        642 integration points.
  Task    77 has        620 integration points.
  Task    78 has        637 integration points.
  Task    79 has        639 integration points.
  Task    80 has        680 integration points.
  Task    81 has        633 integration points.
  Task    82 has        648 integration points.
  Task    83 has        642 integration points.
  Task    84 has        723 integration points.
  Task    85 has        656 integration points.
  Task    86 has        661 integration points.
  Task    87 has        677 integration points.
  Task    88 has        634 integration points.
  Task    89 has        701 integration points.
  Task    90 has        647 integration points.
  Task    91 has        644 integration points.
  Task    92 has        661 integration points.
  Task    93 has        626 integration points.
  Task    94 has        674 integration points.
  Task    95 has        623 integration points.
  Task    96 has        628 integration points.
  Task    97 has        630 integration points.
  Task    98 has        625 integration points.
  Task    99 has        677 integration points.
  Task   100 has        660 integration points.
  Task   101 has        632 integration points.
  Task   102 has        640 integration points.
  Task   103 has        628 integration points.
  Task   104 has        682 integration points.
  Task   105 has        649 integration points.
  Task   106 has        646 integration points.
  Task   107 has        645 integration points.
  Task   108 has        698 integration points.
  Task   109 has        683 integration points.
  Task   110 has        705 integration points.
  Task   111 has        636 integration points.
  Task   112 has        677 integration points.
  Task   113 has        637 integration points.
  Task   114 has        627 integration points.
  Task   115 has        659 integration points.
  Task   116 has        640 integration points.
  Task   117 has        713 integration points.
  Task   118 has        621 integration points.
  Task   119 has        648 integration points.
  Initializing partition tables, free-atom densities, potentials, etc. across the integration grid (initialize_grid_storage).
  | initialize_grid_storage: Actual outermost partition radius vs. multipole_radius_free
  | (-- VB: in principle, multipole_radius_free should be larger, hence this output)
  | Species        1: Confinement radius =              4.999999999999999 AA, multipole_radius_free =              5.001180127821857 AA.
  | Species        1: outer_partition_radius set to              5.001180127821857 AA .
  | Species        2: Confinement radius =              4.999999999999999 AA, multipole_radius_free =              5.017573460429229 AA.
  | Species        2: outer_partition_radius set to              5.017573460429229 AA .
  | Species        3: Confinement radius =              4.999999999999999 AA, multipole_radius_free =              5.048384829883283 AA.
  | Species        3: outer_partition_radius set to              5.048384829883283 AA .
  | The sparse table of interatomic distances needs       3750.16 kbyte instead of      9400.45 kbyte of memory.
  | Net number of integration points:    77850
  | of which are non-zero points    :    61716
  | Numerical average free-atom electrostatic potential    :    -19.38257384 eV
  Renormalizing the initial density to the exact electron count on the 3D integration grid.
  | Initial density: Formal number of electrons (from input files) :     138.0000000000
  | Integrated number of electrons on 3D grid     :     137.9988215215
  | Charge integration error                      :      -0.0011784785
  | Normalization factor for density and gradient :       1.0000085398
  Renormalizing the free-atom superposition density to the exact electron count on the 3D integration grid.
  | Formal number of electrons (from input files) :     138.0000000000
  | Integrated number of electrons on 3D grid     :     137.9988215215
  | Charge integration error                      :      -0.0011784785
  | Normalization factor for density and gradient :       1.0000085398
  Obtaining max. number of non-zero basis functions in each batch (get_n_compute_maxes).
  | Maximal number of non-zero basis functions:     1019 in task     0
  | Maximal number of non-zero basis functions:     1019 in task     1
  | Maximal number of non-zero basis functions:      996 in task     2
  | Maximal number of non-zero basis functions:     1013 in task     3
  | Maximal number of non-zero basis functions:     1034 in task     4
  | Maximal number of non-zero basis functions:     1012 in task     5
  | Maximal number of non-zero basis functions:      991 in task     6
  | Maximal number of non-zero basis functions:      989 in task     7
  | Maximal number of non-zero basis functions:      994 in task     8
  | Maximal number of non-zero basis functions:      967 in task     9
  | Maximal number of non-zero basis functions:      998 in task    10
  | Maximal number of non-zero basis functions:     1000 in task    11
  | Maximal number of non-zero basis functions:      988 in task    12
  | Maximal number of non-zero basis functions:     1010 in task    13
  | Maximal number of non-zero basis functions:     1000 in task    14
  | Maximal number of non-zero basis functions:      986 in task    15
  | Maximal number of non-zero basis functions:     1034 in task    16
  | Maximal number of non-zero basis functions:      995 in task    17
  | Maximal number of non-zero basis functions:     1019 in task    18
  | Maximal number of non-zero basis functions:     1035 in task    19
  | Maximal number of non-zero basis functions:     1017 in task    20
  | Maximal number of non-zero basis functions:     1028 in task    21
  | Maximal number of non-zero basis functions:     1019 in task    22
  | Maximal number of non-zero basis functions:      985 in task    23
  | Maximal number of non-zero basis functions:     1058 in task    24
  | Maximal number of non-zero basis functions:     1030 in task    25
  | Maximal number of non-zero basis functions:     1019 in task    26
  | Maximal number of non-zero basis functions:     1027 in task    27
  | Maximal number of non-zero basis functions:      993 in task    28
  | Maximal number of non-zero basis functions:      991 in task    29
  | Maximal number of non-zero basis functions:      999 in task    30
  | Maximal number of non-zero basis functions:     1026 in task    31
  | Maximal number of non-zero basis functions:      970 in task    32
  | Maximal number of non-zero basis functions:      991 in task    33
  | Maximal number of non-zero basis functions:      995 in task    34
  | Maximal number of non-zero basis functions:      993 in task    35
  | Maximal number of non-zero basis functions:     1030 in task    36
  | Maximal number of non-zero basis functions:     1022 in task    37
  | Maximal number of non-zero basis functions:     1037 in task    38
  | Maximal number of non-zero basis functions:      980 in task    39
  | Maximal number of non-zero basis functions:     1038 in task    40
  | Maximal number of non-zero basis functions:      992 in task    41
  | Maximal number of non-zero basis functions:      990 in task    42
  | Maximal number of non-zero basis functions:     1042 in task    43
  | Maximal number of non-zero basis functions:      988 in task    44
  | Maximal number of non-zero basis functions:      987 in task    45
  | Maximal number of non-zero basis functions:      990 in task    46
  | Maximal number of non-zero basis functions:     1023 in task    47
  | Maximal number of non-zero basis functions:     1054 in task    48
  | Maximal number of non-zero basis functions:     1025 in task    49
  | Maximal number of non-zero basis functions:      988 in task    50
  | Maximal number of non-zero basis functions:     1000 in task    51
  | Maximal number of non-zero basis functions:      973 in task    52
  | Maximal number of non-zero basis functions:      994 in task    53
  | Maximal number of non-zero basis functions:     1029 in task    54
  | Maximal number of non-zero basis functions:     1028 in task    55
  | Maximal number of non-zero basis functions:      996 in task    56
  | Maximal number of non-zero basis functions:      973 in task    57
  | Maximal number of non-zero basis functions:     1019 in task    58
  | Maximal number of non-zero basis functions:      993 in task    59
  | Maximal number of non-zero basis functions:     1005 in task    60
  | Maximal number of non-zero basis functions:     1045 in task    61
  | Maximal number of non-zero basis functions:     1042 in task    62
  | Maximal number of non-zero basis functions:     1015 in task    63
  | Maximal number of non-zero basis functions:     1047 in task    64
  | Maximal number of non-zero basis functions:      998 in task    65
  | Maximal number of non-zero basis functions:     1022 in task    66
  | Maximal number of non-zero basis functions:      976 in task    67
  | Maximal number of non-zero basis functions:     1026 in task    68
  | Maximal number of non-zero basis functions:     1002 in task    69
  | Maximal number of non-zero basis functions:      975 in task    70
  | Maximal number of non-zero basis functions:     1016 in task    71
  | Maximal number of non-zero basis functions:     1051 in task    72
  | Maximal number of non-zero basis functions:     1035 in task    73
  | Maximal number of non-zero basis functions:      997 in task    74
  | Maximal number of non-zero basis functions:     1002 in task    75
  | Maximal number of non-zero basis functions:     1013 in task    76
  | Maximal number of non-zero basis functions:      976 in task    77
  | Maximal number of non-zero basis functions:     1029 in task    78
  | Maximal number of non-zero basis functions:     1037 in task    79
  | Maximal number of non-zero basis functions:      959 in task    80
  | Maximal number of non-zero basis functions:     1037 in task    81
  | Maximal number of non-zero basis functions:     1008 in task    82
  | Maximal number of non-zero basis functions:      975 in task    83
[...]
     38       2.00000          -1.111108          -30.23478
     39       2.00000          -1.111108          -30.23478
     40       2.00000          -1.057372          -28.77255
     41       2.00000          -1.057372          -28.77255
     42       2.00000          -1.052114          -28.62948
     43       2.00000          -0.609907          -16.59642
     44       2.00000          -0.591599          -16.09824
     45       2.00000          -0.591599          -16.09824
     46       2.00000          -0.539273          -14.67437
     47       2.00000          -0.538817          -14.66196
     48       2.00000          -0.538817          -14.66196
     49       2.00000          -0.536466          -14.59799
     50       2.00000          -0.536221          -14.59132
     51       2.00000          -0.536221          -14.59132
     52       2.00000          -0.472573          -12.85937
     53       2.00000          -0.471701          -12.83563
     54       2.00000          -0.471701          -12.83562
     55       2.00000          -0.460652          -12.53499
     56       2.00000          -0.460091          -12.51970
     57       2.00000          -0.460091          -12.51970
     58       2.00000          -0.455309          -12.38958
     59       2.00000          -0.455309          -12.38958
     60       2.00000          -0.432726          -11.77508
     61       2.00000          -0.416136          -11.32363
     62       2.00000          -0.416136          -11.32362
     63       2.00000          -0.411004          -11.18400
     64       2.00000          -0.409279          -11.13705
     65       2.00000          -0.409279          -11.13705
     66       2.00000          -0.408316          -11.11083
     67       2.00000          -0.408315          -11.11083
     68       2.00000          -0.407161          -11.07942
     69       2.00000          -0.406419          -11.05923
     70       0.00000          -0.232609           -6.32961
     71       0.00000          -0.232418           -6.32443
     72       0.00000          -0.232418           -6.32443
     73       0.00000          -0.230037           -6.25962
     74       0.00000          -0.229777           -6.25256
     75       0.00000          -0.229777           -6.25256
     76       0.00000          -0.081003           -2.20421
     77       0.00000          -0.047834           -1.30163
     78       0.00000          -0.047834           -1.30163
     79       0.00000           0.002974            0.08093
     80       0.00000           0.009989            0.27181
     81       0.00000           0.009989            0.27181
     82       0.00000           0.173579            4.72332
     83       0.00000           0.173579            4.72332
     84       0.00000           0.205043            5.57949
     85       0.00000           0.298791            8.13050
     86       0.00000           0.299138            8.13995
     87       0.00000           0.334431            9.10032
     88       0.00000           0.334431            9.10032
     89       0.00000           0.334733            9.10854
     90       0.00000           0.334733            9.10854
     91       0.00000           0.377922           10.28377
     92       0.00000           0.377922           10.28377
     93       0.00000           0.446112           12.13932
     94       0.00000           0.446112           12.13933
     95       0.00000           0.448689           12.20946
     96       0.00000           0.448689           12.20946
     97       0.00000           0.514282           13.99433
     98       0.00000           0.551556           15.00860
     99       0.00000           0.552938           15.04621
    100       0.00000           0.579207           15.76102
    101       0.00000           0.582750           15.85743
    102       0.00000           0.586181           15.95080
    103       0.00000           0.617725           16.80916
    104       0.00000           0.617725           16.80916
    105       0.00000           0.618715           16.83610
    106       0.00000           0.618715           16.83610
    107       0.00000           0.707920           19.26348
    108       0.00000           0.707920           19.26348

  What follows are estimated values for band gap, HOMO, LUMO, etc.
  | They are estimated on a discrete k-point grid and not necessarily exact.
  | For converged numbers, create a DOS and/or band structure plot on a denser k-grid.

  Highest occupied state (VBM) at    -10.90865112 eV (relative to internal zero)
  | Occupation number:      2.00000000
  | K-point:      87 at    0.133333    0.866667    0.000000 (in units of recip. lattice)

  Lowest unoccupied state (CBM) at    -7.12178406 eV (relative to internal zero)
  | Occupation number:      0.00000000
  | K-point:     150 at    0.266667    0.733333    0.000000 (in units of recip. lattice)

  ESTIMATED overall HOMO-LUMO gap:      3.78686706 eV between HOMO at k-point 87 and LUMO at k-point 150
  | This appears to be an indirect band gap.
  | Smallest direct gap :      3.94526296 eV for k_point 307 at    0.800000    0.200000    0.000000 (in units of recip. lattice)
  The gap value is above 0.2 eV. Unless you are using a very sparse k-point grid,
  this system is most likely an insulator or a semiconductor.
  | Chemical Potential                          :    -7.55829553 eV

  Self-consistency cycle converged.


------------------------------------------------------------
  End self-consistency iteration #    20       :  max(cpu_time)    wall_clock(cpu1)
  | Time for this iteration                    :        3.737 s           3.752 s
  | Charge density & force component update    :        3.040 s           3.047 s
  | Density mixing                             :        0.012 s           0.002 s
  | Hartree multipole update                   :        0.001 s           0.002 s
  | Hartree multipole summation                :        0.229 s           0.229 s
  | Hartree pot. SCF incomplete forces         :        0.139 s           0.139 s
  | Integration                                :        0.230 s           0.231 s
  | Solution of K.-S. eqns.                    :        0.081 s           0.081 s
  | Total energy evaluation                    :        0.003 s           0.002 s

  Partial memory accounting:
  | Current value for overall tracked memory usage:
  |   Minimum:       12.119 MB (on task   0)
  |   Maximum:       12.842 MB (on task   1)
  |   Average:       12.709 MB
  | Peak value for overall tracked memory usage:
  |   Minimum:       38.441 MB (on task 103 after allocating d_wave)
  |   Maximum:       42.121 MB (on task  40 after allocating d_wave)
  |   Average:       40.187 MB
  | Largest tracked array allocation so far:
  |   Minimum:        7.432 MB (density_matrix_con on task  52)
  |   Maximum:        8.784 MB (density_matrix_con on task  40)
  |   Average:        8.062 MB
  Note:  These values currently only include a subset of arrays which are explicitly tracked.
  The "true" memory usage will be greater.
------------------------------------------------------------
  Removing unitary transformations (pure translations, rotations) from forces on atoms.
  Atomic forces before filtering:
  | Net force on center of mass :   0.140566E-06  0.360772E-07 -0.322392E-06 eV/A
  Atomic forces after filtering:
  | Net force on center of mass :  -0.425353E-22  0.348449E-18 -0.174225E-18 eV/A

  Energy and forces in a compact form:
  | Total energy uncorrected      :         -0.127363325791610E+06 eV
  | Total energy corrected        :         -0.127363325791610E+06 eV  <-- do not rely on this value for anything but (periodic) metals
  | Electronic free energy        :         -0.127363325791610E+06 eV
  Total atomic forces (unitary forces cleaned) [eV/Ang]:
  |    1          0.847133078798134E-08         -0.262417429291150E-08          0.807465727685127E-07
  |    2          0.205356056221810E-07          0.118224122995736E-07          0.146500165067123E-05
  |    3         -0.188192771462037E-08         -0.191782012176172E-07         -0.144069739657513E-05
  |    4         -0.508279870330895E-06         -0.179119183320122E-07         -0.472239374702576E-06
  |    5         -0.214860214386271E-06          0.363907693424311E-07          0.215724263389304E-05
  |    6         -0.488830610054900E-06         -0.426634266473794E-07         -0.197270604125049E-05
  |    7          0.175986238468843E-06          0.246017722753041E-02         -0.243676600203797E-03
  |    8          0.180394035585967E-06         -0.246018840439850E-02          0.243680873207269E-03
  |    9          0.217416009948594E-06          0.246019399699495E-02         -0.243294372181290E-03
  |   10          0.297530665352958E-06         -0.246019224558840E-02          0.242542091640668E-03
  |   11          0.186480011218242E-06          0.246024220083702E-02         -0.242356741155383E-03
  |   12          0.127038725501919E-06         -0.246019861083663E-02          0.243287400647729E-03

  ------------------------------------ 
  Start decomposition of the XC Energy 
  ------------------------------------ 
  X and C from original XC functional choice 
  Hartree-Fock Energy :          0.000000000 Ha              0.000000000 eV
  X Energy            :       -238.064192729 Ha          -6478.056284027 eV
  C Energy            :         -6.599541408 Ha           -179.582658768 eV
  Total XC Energy     :       -244.663734137 Ha          -6657.638942795 eV
  ------------------------------------ 
  LDA X and C from self-consistent density 
  X Energy LDA        :       -215.596450043 Ha          -5866.677898968 eV
  C Energy LDA        :        -10.982248289 Ha           -298.842180879 eV
  ------------------------------------ 
  End decomposition of the XC Energy 
  ------------------------------------ 

------------------------------------------------------------
  Relaxation / MD: End force evaluation.       :  max(cpu_time)    wall_clock(cpu1)
  | Time for this force evaluation             :       23.456 s          24.500 s

------------------------------------------------------------
  Geometry optimization: Attempting to predict improved coordinates.

  Removing unitary transformations (pure translations, rotations) from forces on atoms.
  Atomic forces before filtering:
  | Net force on center of mass :  -0.425353E-22  0.348449E-18 -0.174225E-18 eV/A
  Atomic forces after filtering:
  | Net force on center of mass :  -0.425353E-22  0.348449E-18 -0.871124E-19 eV/A
  Net remaining forces (excluding translations, rotations) in present geometry:
  || Forces on atoms   || =   0.246024E-02 eV/A.
  Maximum force component is  0.246024E-02 eV/A.
  Present geometry is converged.

------------------------------------------------------------
  Final atomic structure:
                         x [A]             y [A]             z [A]
  lattice_vector         2.81460000        0.00000000        0.00000000
  lattice_vector        -1.40730000        2.43751510        0.00000000
  lattice_vector         0.00000000        0.00000000       14.05370000

            atom        -0.00000001        0.00000000       -0.00000002  Li
            atom         1.40729998        0.81250504        4.68456650  Li
            atom         0.00000000        1.62501005        9.36913351  Li
            atom         0.00000003       -0.00000001        7.02685003  Co
            atom         1.40730001        0.81250499       11.71141655  Co
            atom         0.00000001        1.62501012        2.34228343  Co
            atom        -0.00000001       -0.00778937       10.69566331  O
            atom        -0.00000001        0.00778938        3.35803668  O
            atom         1.40729999        0.80471574        1.32653010  O
            atom         1.40730000        0.82029436        8.04260339  O
            atom         0.00000001        1.61722072        6.01109665  O
            atom        -0.00000001        1.63279937       12.72716988  O

  Fractional coordinates:
                         L1                L2                L3
       atom_frac        -0.00000000        0.00000000       -0.00000000  Li
       atom_frac         0.66666666        0.33333334        0.33333332  Li
       atom_frac         0.33333333        0.66666666        0.66666668  Li
       atom_frac         0.00000001       -0.00000000        0.50000000  Co
       atom_frac         0.66666666        0.33333332        0.83333332  Co
       atom_frac         0.33333335        0.66666669        0.16666667  Co
       atom_frac        -0.00159781       -0.00319562        0.76105675  O
       atom_frac         0.00159781        0.00319562        0.23894324  O
       atom_frac         0.66506887        0.33013775        0.09439010  O
       atom_frac         0.66826447        0.33652894        0.57227658  O
       atom_frac         0.33173553        0.66347106        0.42772342  O
       atom_frac         0.33493113        0.66986226        0.90560990  O
------------------------------------------------------------

------------------------------------------------------------------------------
  Final output of selected total energy values:

  The following output summarizes some interesting total energy values
  at the end of a run (AFTER all relaxation, molecular dynamics, etc.).

  | Total energy of the DFT / Hartree-Fock s.c.f. calculation      :        -127363.325791610 eV
  | Final zero-broadening corrected energy (caution - metals only) :        -127363.325791610 eV
  | For reference only, the value of 1 Hartree used in FHI-aims is :             27.211384500 eV
  | For reference only, the overall average (free atom contribution
  | + realspace contribution) of the electrostatic potential after
  | s.c.f. convergence is                                          :            -18.669983155 eV

  Before relying on these values, please be sure to understand exactly which
  total energy value is referred to by a given number. Different objects may
  all carry the same name 'total energy'. Definitions:

  Total energy of the DFT / Hartree-Fock s.c.f. calculation:
  | Note that this energy does not include ANY quantities calculated after the
  | s.c.f. cycle, in particular not ANY RPA, MP2, etc. many-body perturbation terms.

  Final zero-broadening corrected energy:
  | For metallic systems only, a broadening of the occupation numbers at the Fermi
  | level can be extrapolated back to zero broadening by an electron-gas inspired
  | formula. For all systems that are not real metals, this value can be
  | meaningless and should be avoided.

------------------------------------------------------------------------------
  Methods described in the following list of references were used in this FHI-aims run.
  If you publish the results, please make sure to cite these reference if they apply.
  FHI-aims is an academic code, and for our developers (often, Ph.D. students
  and postdocs), scientific credit in the community is essential.
  Thank you for helping us!

  For any use of FHI-aims, please cite:

    Volker Blum, Ralf Gehrke, Felix Hanke, Paula Havu, Ville Havu,
    Xinguo Ren, Karsten Reuter, and Matthias Scheffler
    'Ab initio molecular simulations with numeric atom-centered orbitals'
    Computer Physics Communications 180, 2175-2196 (2009)
    http://dx.doi.org/10.1016/j.cpc.2009.06.022


  The provided symmetry information was generated with SPGlib:

    Atsushi Togo, Yusuke Seto, Dimitar Pashov
    SPGlib 1.7.3 obtained from http://spglib.sourceforge.net
    Copyright (C) 2008 Atsushi Togo


 DFT+U infrastructure was used in your run
 please cite:

 Matthias Kick, Karsten Reuter and Harald Oberhofer,
 Intricacies Of DFT+U, not only in a Numeric Atom Centered Orbital Framework

 Journal of Chemical Theory and Computation
 https://


  The ELSI infrastructure was used in your run to solve the Kohn-Sham electronic structure.
  Please check out http://elsi-interchange.org to learn more.
  If scalability is important for your project, please acknowledge ELSI by citing:

    V. W-z. Yu, F. Corsetti, A. Garcia, W. P. Huhn, M. Jacquelin, W. Jia,
    B. Lange, L. Lin, J. Lu, W. Mi, A. Seifitokaldani, A. Vazquez-Mayagoitia,
    C. Yang, H. Yang, and V. Blum
    'ELSI: A unified software interface for Kohn-Sham electronic structure solvers'
    Computer Physics Communications 222, 267-285 (2018).
    http://dx.doi.org/10.1016/j.cpc.2017.09.007


  For the real-space grid partitioning and parallelization used in this calculation, please cite:

    Ville Havu, Volker Blum, Paula Havu, and Matthias Scheffler,
    'Efficient O(N) integration for all-electron electronic structure calculation'
    'using numerically tabulated basis functions'
    Journal of Computational Physics 228, 8367-8379 (2009).
    http://dx.doi.org/10.1016/j.jcp.2009.08.008

  Of course, there are many other important community references, e.g., those cited in the
  above references. Our list is limited to references that describe implementations in the
  FHI-aims code. The reason is purely practical (length of this list) - please credit others as well.

------------------------------------------------------------
          Leaving FHI-aims.
          Date     :  20240813, Time     :  170009.709

          Computational steps:
          | Number of self-consistency cycles          :           88
          | Number of SCF (re)initializations          :            3
          | Number of relaxation steps                 :            2

          Detailed time accounting                     :  max(cpu_time)    wall_clock(cpu1)
          | Total time                                 :       95.759 s          96.854 s
          | Preparation time                           :        0.437 s           0.438 s
          | Boundary condition initalization           :        0.493 s           0.492 s
          | Grid partitioning                          :        0.128 s           0.127 s
          | Preloading free-atom quantities on grid    :        0.383 s           0.391 s
          | Free-atom superposition energy             :        0.032 s           0.032 s
          | Total time for integrations                :       23.974 s          24.028 s
          | Total time for solution of K.-S. equations :        7.763 s           7.659 s
          | Total time for EV reorthonormalization     :        0.033 s           0.020 s
          | Total time for density & force components  :       45.276 s          45.387 s
          | Total time for mixing & preconditioning    :        6.378 s           5.800 s
          | Total time for Hartree multipole update    :        0.131 s           0.160 s
          | Total time for Hartree multipole sum       :        8.314 s           8.343 s
          | Total time for total energy evaluation     :        0.359 s           0.225 s
          | Total time NSC force correction            :        0.818 s           0.885 s
          | Total time for scaled ZORA corrections     :        0.000 s           0.000 s

          Partial memory accounting:
          | Residual value for overall tracked memory usage across tasks:     0.000000 MB (should be 0.000000 MB)
          | Peak values for overall tracked memory usage:
          |   Minimum:       38.441 MB (on task 103 after allocating d_wave)
          |   Maximum:       42.121 MB (on task  40 after allocating d_wave)
          |   Average:       40.187 MB
          | Largest tracked array allocation:
          |   Minimum:        7.432 MB (density_matrix_con on task  52)
          |   Maximum:        8.784 MB (density_matrix_con on task  40)
          |   Average:        8.062 MB
          Note:  These values currently only include a subset of arrays which are explicitly tracked.
          The "true" memory usage will be greater.

          Have a nice day.
------------------------------------------------------------
