------------------------------------------------------------
          Invoking FHI-aims ...

          When using FHI-aims, please cite the following reference:

            Volker Blum, Ralf Gehrke, Felix Hanke, Paula Havu,
            Ville Havu, Xinguo Ren, Karsten Reuter, and Matthias Scheffler,
            'Ab Initio Molecular Simulations with Numeric Atom-Centered Orbitals',
            Computer Physics Communications 180, 2175-2196 (2009)

          In addition, many other developments in FHI-aims are likely important for
          your particular application. A partial list of references is given at the end of
          this file. Thank you for giving credit to the authors of these developments.

          For any questions about FHI-aims, please visit our slack channel at

            https://fhi-aims.slack.com

          and our main development and support site at

            https://aims-git.rz-berlin.mpg.de .

          The latter site, in particular, has a wiki to collect information, as well
          as an issue tracker to log discussions, suggest improvements, and report issues
          or bugs. https://aims-git.rz-berlin.mpg.de is also the main development site
          of the project and all new and updated code versions can be obtained there.
          Please send an email to aims-coordinators@fhi-berlin.mpg.de and we will add
          you to these sites. They are for you and everyone is welcome there.

------------------------------------------------------------



  Date     :  20240813, Time     :  213018.753
  Time zero on CPU 1             :   0.146599000000000E+00  s.
  Internal wall clock time zero  :           492816618.753  s.

  FHI-aims created a unique identifier for this run for later identification
  aims_uuid : EFFF8002-47DE-4D56-A114-8694FF5635A1

  Build configuration of the current instance of FHI-aims
  -------------------------------------------------------
  FHI-aims version      : 210618
  Commit number         : f9e1e7592
  CMake host system     : Linux-3.10.0-1127.13.1.el7.x86_64
  CMake version         : 3.17.3
  Fortran compiler      : /apps/compilers/intel/2018.2/compilers_and_libraries_2018/linux/mpi/intel64/bin/mpif90 (Intel) version 18.0.2.20180210
  Fortran compiler flags: -O3 -ip -fp-model precise
  C compiler            : /apps/compilers/intel/2018.2/compilers_and_libraries_2018/linux/bin/intel64/icc (Intel) version 18.0.2.20180210
  C compiler flags      : -O3 -ip -fp-model precise -std=gnu99
  ELPA2 kernel          : AVX2
  Using MPI
  Using ScaLAPACK
  Using LibXC
  Using i-PI
  Using RLSY
  Linking against: /apps/compilers/intel/2018.2/compilers_and_libraries_2018/linux/mkl/lib/intel64/libmkl_intel_lp64.so
                   /apps/compilers/intel/2018.2/compilers_and_libraries_2018/linux/mkl/lib/intel64/libmkl_intel_thread.so
                   /apps/compilers/intel/2018.2/compilers_and_libraries_2018/linux/mkl/lib/intel64/libmkl_core.so
                   /apps/compilers/intel/2018.2/compilers_and_libraries_2018/linux/mkl/lib/intel64/libmkl_blacs_intelmpi_lp64.so
                   /apps/compilers/intel/2018.2/compilers_and_libraries_2018/linux/mkl/lib/intel64/libmkl_scalapack_lp64.so
                   /usr/lib64/libpthread.so

  Using      120 parallel tasks.
  Task        0 on host ccs0049 reporting.
  Task        1 on host ccs0049 reporting.
  Task        2 on host ccs0049 reporting.
  Task        3 on host ccs0049 reporting.
  Task        4 on host ccs0049 reporting.
  Task        5 on host ccs0049 reporting.
  Task        6 on host ccs0049 reporting.
  Task        7 on host ccs0049 reporting.
  Task        8 on host ccs0049 reporting.
  Task        9 on host ccs0049 reporting.
  Task       10 on host ccs0049 reporting.
  Task       11 on host ccs0049 reporting.
  Task       12 on host ccs0049 reporting.
  Task       13 on host ccs0049 reporting.
  Task       14 on host ccs0049 reporting.
  Task       15 on host ccs0049 reporting.
  Task       16 on host ccs0049 reporting.
  Task       17 on host ccs0049 reporting.
  Task       18 on host ccs0049 reporting.
  Task       19 on host ccs0049 reporting.
  Task       20 on host ccs0049 reporting.
  Task       21 on host ccs0049 reporting.
  Task       22 on host ccs0049 reporting.
  Task       23 on host ccs0049 reporting.
  Task       24 on host ccs0049 reporting.
  Task       25 on host ccs0049 reporting.
  Task       26 on host ccs0049 reporting.
  Task       27 on host ccs0049 reporting.
  Task       28 on host ccs0049 reporting.
  Task       29 on host ccs0049 reporting.
  Task       30 on host ccs0049 reporting.
  Task       31 on host ccs0049 reporting.
  Task       32 on host ccs0049 reporting.
  Task       33 on host ccs0049 reporting.
  Task       34 on host ccs0049 reporting.
  Task       35 on host ccs0049 reporting.
  Task       36 on host ccs0049 reporting.
  Task       37 on host ccs0049 reporting.
  Task       38 on host ccs0049 reporting.
  Task       39 on host ccs0049 reporting.
  Task       40 on host ccs0054 reporting.
  Task       41 on host ccs0054 reporting.
  Task       42 on host ccs0054 reporting.
  Task       43 on host ccs0054 reporting.
  Task       44 on host ccs0054 reporting.
  Task       45 on host ccs0054 reporting.
  Task       46 on host ccs0054 reporting.
  Task       47 on host ccs0054 reporting.
  Task       48 on host ccs0054 reporting.
  Task       49 on host ccs0054 reporting.
  Task       50 on host ccs0054 reporting.
  Task       51 on host ccs0054 reporting.
  Task       52 on host ccs0054 reporting.
  Task       53 on host ccs0054 reporting.
  Task       54 on host ccs0054 reporting.
  Task       55 on host ccs0054 reporting.
  Task       56 on host ccs0054 reporting.
  Task       57 on host ccs0054 reporting.
  Task       58 on host ccs0054 reporting.
  Task       59 on host ccs0054 reporting.
  Task       60 on host ccs0054 reporting.
  Task       61 on host ccs0054 reporting.
  Task       62 on host ccs0054 reporting.
  Task       63 on host ccs0054 reporting.
  Task       64 on host ccs0054 reporting.
  Task       65 on host ccs0054 reporting.
  Task       66 on host ccs0054 reporting.
  Task       67 on host ccs0054 reporting.
  Task       68 on host ccs0054 reporting.
  Task       69 on host ccs0054 reporting.
  Task       70 on host ccs0054 reporting.
  Task       71 on host ccs0054 reporting.
  Task       72 on host ccs0054 reporting.
  Task       73 on host ccs0054 reporting.
  Task       74 on host ccs0054 reporting.
  Task       75 on host ccs0054 reporting.
  Task       76 on host ccs0054 reporting.
  Task       77 on host ccs0054 reporting.
  Task       78 on host ccs0054 reporting.
  Task       79 on host ccs0054 reporting.
  Task       80 on host ccs0070 reporting.
  Task       81 on host ccs0070 reporting.
  Task       82 on host ccs0070 reporting.
  Task       83 on host ccs0070 reporting.
  Task       84 on host ccs0070 reporting.
  Task       85 on host ccs0070 reporting.
  Task       86 on host ccs0070 reporting.
  Task       87 on host ccs0070 reporting.
  Task       88 on host ccs0070 reporting.
  Task       89 on host ccs0070 reporting.
  Task       90 on host ccs0070 reporting.
  Task       91 on host ccs0070 reporting.
  Task       92 on host ccs0070 reporting.
  Task       93 on host ccs0070 reporting.
  Task       94 on host ccs0070 reporting.
  Task       95 on host ccs0070 reporting.
  Task       96 on host ccs0070 reporting.
  Task       97 on host ccs0070 reporting.
  Task       98 on host ccs0070 reporting.
  Task       99 on host ccs0070 reporting.
  Task      100 on host ccs0070 reporting.
  Task      101 on host ccs0070 reporting.
  Task      102 on host ccs0070 reporting.
  Task      103 on host ccs0070 reporting.
  Task      104 on host ccs0070 reporting.
  Task      105 on host ccs0070 reporting.
  Task      106 on host ccs0070 reporting.
  Task      107 on host ccs0070 reporting.
  Task      108 on host ccs0070 reporting.
  Task      109 on host ccs0070 reporting.
  Task      110 on host ccs0070 reporting.
  Task      111 on host ccs0070 reporting.
  Task      112 on host ccs0070 reporting.
  Task      113 on host ccs0070 reporting.
  Task      114 on host ccs0070 reporting.
  Task      115 on host ccs0070 reporting.
  Task      116 on host ccs0070 reporting.
  Task      117 on host ccs0070 reporting.
  Task      118 on host ccs0070 reporting.
  Task      119 on host ccs0070 reporting.

  Performing system and environment tests:
  *** Environment variable OMP_NUM_THREADS is not set
  *** For performance reasons you might want to set it to 1
  | Checking for ScaLAPACK...
  | Testing pdtran()...
  | All pdtran() tests passed.

  Obtaining array dimensions for all initial allocations:
  
  -----------------------------------------------------------------------
  Parsing control.in (first pass over file, find array dimensions only).
  The contents of control.in will be repeated verbatim below
  unless switched off by setting 'verbatim_writeout .false.' .
  in the first line of control.in .
  -----------------------------------------------------------------------
  
  #===============================================================================
  # FHI-aims file: ./control.in
  # Created using the Atomic Simulation Environment (ASE)
  # Thu May  9 17:40:36 2024
  #===============================================================================
  spin                               none
  relativistic                       atomic_zora scalar
  compute_forces                     .true.
  override_warning_libxc             true
  xc                                 libxc MGGA_X_MBEEF+GGA_C_PBE_SOL
  k_grid                             14 4 15
  occupation_type                    gaussian 0.1
  plus_u_petukhov_mixing             1
  plus_u_use_hydros                  True
  plus_u_matrix_control              True
  sc_accuracy_etot                   1e-06
  sc_accuracy_eev                    0.001
  sc_accuracy_rho                    1e-06
  sc_accuracy_forces                 0.0001
  relax_geometry                     bfgs 0.01
  #===============================================================================
  
  ################################################################################
  #
  #  FHI-aims code project
  #  VB, Fritz-Haber Institut, 2009
  #
  #  Suggested "light" defaults for Mo atom (to be pasted into control.in file)
  #  Be sure to double-check any results obtained with these settings for post-processing,
  #  e.g., with the "tight" defaults and larger basis sets.
  #
  ################################################################################
    species        Mo
  #     global species definitions
      nucleus             42
      mass                95.94
  #
      l_hartree           4
  #
      cut_pot             3.5  1.5  1.0
      basis_dep_cutoff    1e-4
  #
      radial_base         59 5.0
      radial_multiplier   1
      angular_grids specified
        division   0.4847   50
        division   0.9168  110
        division   1.2280  194
        division   1.6402  302
  #      division   1.8849  434
  #      division   2.0237  590
  #      division   2.0980  974
  #      division   2.7405 1202
  #      outer_grid  974
        outer_grid  302
  ################################################################################
  #
  #  Definition of "minimal" basis
  #
  ################################################################################
  #     valence basis states
      valence      5  s   1.
      valence      4  p   6.
      valence      4  d   5.
  #     ion occupancy
      ion_occ     5  s   0.
      ion_occ     4  p   6.
      ion_occ     4  d   4.
  ################################################################################
  #
  #  Suggested additional basis functions. For production calculations,
  #  uncomment them one after another (the most important basis functions are
  #  listed first).
  #
  #  Constructed for dimers: 1.675 A, 1.9 A, 2.375 A, 3.00 A, 4.00 A
  #
  ################################################################################
  #  "First tier"  - max. impr. -711.23  meV, min. impr. -21.07 meV
       hydro 4 f 8.4
       hydro 3 d 2.8
       ionic 5 p auto
  #     hydro 5 g 12
       ionic 5 s auto
  #  "Second tier" - max. impr. -39.38  meV, min. impr. -2.68 meV
  #     hydro 4 f 12.4
  #     hydro 3 d 3.3
  #     hydro 6 h 17.2
  #     hydro 4 f 7.6
  #     hydro 3 p 3.0
  #     hydro 1 s 0.65
  #  "Third tier"  - max. impr. -5.50 meV, min. impr. -0.47 meV
  #     hydro 4 f 29.2
  #     hydro 5 g 11.2
  #     hydro 3 d 6.8
  #     hydro 6 h 14.8
  #     hydro 2 p 2.3
  #     hydro 4 s 3.8
  #  "Fourth tier"  - max. impr. -0.58 meV, min. impr. -0.19 meV
  #     hydro 5 f 6.8
  #     hydro 5 d 14.8
  #     hydro 6 s 7.8
  #     hydro 5 g 20.8
  #     hydro 5 d 10.4
  #     hydro 5 p 9.8
  #  Further functions - -0.17 meV and below
  #     hydro 5 d 3.2
  plus_u 4 d 2.959
  hubbard_coefficient 0.5 0 0 0
  ################################################################################
  #
  #  FHI-aims code project
  #  VB, Fritz-Haber Institut, 2009
  #
  #  Suggested "light" defaults for O atom (to be pasted into control.in file)
  #  Be sure to double-check any results obtained with these settings for post-processing,
  #  e.g., with the "tight" defaults and larger basis sets.
  #
  ################################################################################
    species        O
  #     global species definitions
      nucleus             8
      mass                15.9994
  #
      l_hartree           4
  #
      cut_pot             3.5  1.5  1.0
      basis_dep_cutoff    1e-4
  #
      radial_base         36 5.0
      radial_multiplier   1
       angular_grids specified
        division   0.2659   50
        division   0.4451  110
        division   0.6052  194
        division   0.7543  302
  #      division   0.8014  434
  #      division   0.8507  590
  #      division   0.8762  770
  #      division   0.9023  974
  #      division   1.2339 1202
  #      outer_grid 974
        outer_grid 302
  ################################################################################
  #
  #  Definition of "minimal" basis
  #
  ################################################################################
  #     valence basis states
      valence      2  s   2.
      valence      2  p   4.
  #     ion occupancy
      ion_occ      2  s   1.
      ion_occ      2  p   3.
  ################################################################################
  #
  #  Suggested additional basis functions. For production calculations,
  #  uncomment them one after another (the most important basis functions are
  #  listed first).
  #
  #  Constructed for dimers: 1.0 A, 1.208 A, 1.5 A, 2.0 A, 3.0 A
  #
  ################################################################################
  #  "First tier" - improvements: -699.05 meV to -159.38 meV
       hydro 2 p 1.8
       hydro 3 d 7.6
       hydro 3 s 6.4
  #  "Second tier" - improvements: -49.91 meV to -5.39 meV
  #     hydro 4 f 11.6
  #     hydro 3 p 6.2
  #     hydro 3 d 5.6
  #     hydro 5 g 17.6
  #     hydro 1 s 0.75
  #  "Third tier" - improvements: -2.83 meV to -0.50 meV
  #     ionic 2 p auto
  #     hydro 4 f 10.8
  #     hydro 4 d 4.7
  #     hydro 2 s 6.8
  #  "Fourth tier" - improvements: -0.40 meV to -0.12 meV
  #     hydro 3 p 5
  #     hydro 3 s 3.3
  #     hydro 5 g 15.6
  #     hydro 4 f 17.6
  #     hydro 4 d 14
  # Further basis functions - -0.08 meV and below
  #     hydro 3 s 2.1
  #     hydro 4 d 11.6
  #     hydro 3 p 16
  #     hydro 2 s 17.2
  plus_u 2 p 0
  hubbard_coefficient 1 0 0 0
  
  -----------------------------------------------------------------------
  Completed first pass over input file control.in .
  -----------------------------------------------------------------------
  
  
  -----------------------------------------------------------------------
  Parsing geometry.in (first pass over file, find array dimensions only).
  The contents of geometry.in will be repeated verbatim below
  unless switched off by setting 'verbatim_writeout .false.' .
  in the first line of geometry.in .
  -----------------------------------------------------------------------
  
  #=======================================================
  # FHI-aims file: ./geometry.in
  # Created using the Atomic Simulation Environment (ASE)
  # Thu May  9 17:40:36 2024
  #=======================================================
  lattice_vector 3.9628000000000001 0.0000000000000000 0.0000000000000000
  lattice_vector 0.0000000000000000 13.8550000000000004 0.0000000000000000
  lattice_vector 0.0000000000000000 0.0000000000000000 3.6964000000000001
  atom_frac 0.4099552171116830 0.6031843294958864 0.2499999940813251 Mo
  atom_frac 0.0900447729651311 0.1031843052296448 0.2499999779868397 Mo
  atom_frac 0.5900448961218977 0.3968159223347658 0.7500000174293657 Mo
  atom_frac 0.9099553127132154 0.8968154439038123 0.7500000098118532 Mo
  atom_frac -0.0060965108986528 0.9347656050371058 0.2499999923706255 O
  atom_frac 0.5060965807826846 0.4347655848605188 0.2500000004901597 O
  atom_frac 1.0060965378059543 0.0652344456157654 0.7499999963558245 O
  atom_frac 0.4939034732022737 0.5652343658887460 0.7500000111649510 O
  atom_frac 0.9794895377178294 0.5890750106330147 0.2499999963539480 O
  atom_frac 0.5205103885404831 0.0890750797019756 0.2499999847354101 O
  atom_frac 0.0205104542404563 0.4109249622654952 0.7500000149919828 O
  atom_frac 0.4794895779730439 0.9109249484518991 0.7500000036731693 O
  atom_frac 0.4609884558744338 0.7223864905088906 0.2499999980357012 O
  atom_frac 0.0390114758632870 0.2223866731953717 0.2499999904757799 O
  atom_frac 0.5390114317740419 0.2776132620168049 0.7500000062525107 O
  atom_frac 0.9609883982122389 0.7776135708603008 0.7500000057905550 O
  
  -----------------------------------------------------------------------
  Completed first pass over input file geometry.in .
  -----------------------------------------------------------------------
  

  Basic array size parameters:
  | Number of species                 :        2
  | Number of atoms                   :       16
  | Number of lattice vectors         :        3
  | Max. basis fn. angular momentum   :        3
  | Max. atomic/ionic basis occupied n:        5
  | Max. number of basis fn. types    :        3
  | Max. radial fns per species/type  :       10
  | Max. logarithmic grid size        :     1436
  | Max. radial integration grid size :       59
  | Max. angular integration grid size:      302
  | Max. angular grid division number :        8
  | Radial grid for Hartree potential :     1436
  | Number of spin channels           :        1
  | Max. number of (n,l) shells per species with '+U' treatment:        1

------------------------------------------------------------
          Reading file control.in.
------------------------------------------------------------
  Spin treatment: No spin polarisation.
  Scalar relativistic treatment of kinetic energy: on-site free-atom approximation to ZORA.
  Forces will be computed.
  XC: Using LibXC. Please refer to LibXC output for further details.
  Using libxc - Initializing
  Libxc version: 4.3.4


  ** PLEASE ** be careful using LibXC. Whilst most of the LDA, GGA and MGGA functionals,
  and hybrid variations therein, should be stable (though we always recommend testing!),
  there are several fancy functionals with e.g. range-separation, like HSE03/HSE06/LC-PBEh,
  and also MGGA functionals that depend on the laplacian of the density, like BR89,
  that are not fully implemented due to the infrastrucutre for these functionals being incomplete or non-generic.
  If you want to use these functionals please contact the development team and we will work on them with you!

  You have selected libxc functional MGGA_X_MBEEF (249)
    - Description: mBEEF exchange
    - Type: MGGA(Exchange)
    - Reference to Literature:
      [1] J. Wellendorff, K. T. Lundgaard, K. W. Jacobsen, and T. Bligaard, J. Chem. Phys. 140, 144107 (2014)

  You have selected libxc functional GGA_C_PBE_SOL (133)
    - Description: Perdew, Burke & Ernzerhof SOL
    - Type: GGA(Correlation)
    - Reference to Literature:
      [1] J. P. Perdew, A. Ruzsinszky, G. I. Csonka, O. A. Vydrov, G. E. Scuseria, L. A. Constantin, X. Zhou, and K. Burke, Phys.

  Switching on meta-ggas
  Found k-point grid:        14         4        15
  Occupation type: Gaussian broadening, width =   0.100000E+00 eV.
  Fixing petukhov mixing factor to   1.000000000000
  hydrogenic basis funktions also used for DFT+U reference states
  Convergence accuracy of total energy:  0.1000E-05
  Convergence accuracy of sum of eigenvalues:  0.1000E-02
  Convergence accuracy of self-consistent charge density:  0.1000E-05
  Convergence accuracy of forces:  0.1000E-03
  Geometry relaxation: Modified BFGS - TRM (trust radius method) for lattice optimization.
  Convergence accuracy for geometry relaxation: Maximum force <   0.100000E-01 eV/A.
 
  Reading configuration options for species Mo                  .
  | Found nuclear charge :  42.0000
  | Found atomic mass :    95.9400000000000      amu
  | Found l_max for Hartree potential  :   4
  | Found cutoff potl. onset [A], width [A], scale factor :    3.50000    1.50000    1.00000
  | Threshold for basis-dependent cutoff potential is   0.100000E-03
  | Found data for basic radial integration grid :    59 points, outermost radius =    5.000 A
  | Found multiplier for basic radial grid :   1
  | Found angular grid specification: user-specified.
  | Specified grid contains     5 separate shells.
  | Check grid settings after all constraints further below.
  | Found free-atom valence shell :  5 s   1.000
  | Found free-atom valence shell :  4 p   6.000
  | Found free-atom valence shell :  4 d   5.000
  | Found free-ion valence shell :  5 s   0.000
  | Found free-ion valence shell :  4 p   6.000
  | Found free-ion valence shell :  4 d   4.000
  | Found hydrogenic basis function :  4 f   8.400
  | Found hydrogenic basis function :  3 d   2.800
  | Found ionic basis function :  5 p , default cutoff radius.
  | Found ionic basis function :  5 s , default cutoff radius.
  | Found request for '+U' treatment for  4 d shell, U =     2.959000 eV.
  | Found coefficents for linear combination of hubbard projectors 
  Species Mo                  : Missing cutoff potential type.
  Defaulting to exp(1/x)/(1-x)^2 type cutoff potential.
  Species Mo: No 'logarithmic' tag. Using default grid for free atom:
  | Default logarithmic grid data [bohr] : 0.1000E-03 0.1000E+03 0.1012E+01
  | Will include ionic basis functions of  2.0-fold positive Mo                   ion.
  Species Mo: On-site basis accuracy parameter (for Gram-Schmidt orthonormalisation) not specified.
  Using default value basis_acc =  0.1000000E-03.
  Species Mo                  : Using default innermost maximum threshold i_radial=  2 for radial functions.
  Species Mo                  : Default cutoff onset for free atom density etc. : 0.35000000E+01 AA.
  Species Mo                  : Basic radial grid will be enhanced according to radial_multiplier =   1, to contain    59 grid points.
 
  Reading configuration options for species O                   .
  | Found nuclear charge :   8.0000
  | Found atomic mass :    15.9994000000000      amu
  | Found l_max for Hartree potential  :   4
  | Found cutoff potl. onset [A], width [A], scale factor :    3.50000    1.50000    1.00000
  | Threshold for basis-dependent cutoff potential is   0.100000E-03
  | Found data for basic radial integration grid :    36 points, outermost radius =    5.000 A
  | Found multiplier for basic radial grid :   1
  | Found angular grid specification: user-specified.
  | Specified grid contains     5 separate shells.
  | Check grid settings after all constraints further below.
  | Found free-atom valence shell :  2 s   2.000
  | Found free-atom valence shell :  2 p   4.000
  | Found free-ion valence shell :  2 s   1.000
  | Found free-ion valence shell :  2 p   3.000
  | Found hydrogenic basis function :  2 p   1.800
  | Found hydrogenic basis function :  3 d   7.600
  | Found hydrogenic basis function :  3 s   6.400
  | Found request for '+U' treatment for  2 p shell, U =     0.000000 eV.
  | Found coefficents for linear combination of hubbard projectors 
  Species O                   : Missing cutoff potential type.
  Defaulting to exp(1/x)/(1-x)^2 type cutoff potential.
  Species O : No 'logarithmic' tag. Using default grid for free atom:
  | Default logarithmic grid data [bohr] : 0.1000E-03 0.1000E+03 0.1012E+01
  Species O : On-site basis accuracy parameter (for Gram-Schmidt orthonormalisation) not specified.
  Using default value basis_acc =  0.1000000E-03.
  Species O                   : Using default innermost maximum threshold i_radial=  2 for radial functions.
  Species O                   : Default cutoff onset for free atom density etc. : 0.35000000E+01 AA.
  Species O                   : Basic radial grid will be enhanced according to radial_multiplier =   1, to contain    36 grid points.
 
  Finished reading input file 'control.in'.
 
------------------------------------------------------------


------------------------------------------------------------
          Reading geometry description geometry.in.
------------------------------------------------------------
  | The smallest distance between any two atoms is         1.66387781 AA.
  | The first atom of this pair is atom number                      4 .
  | The second atom of this pair is atom number                    16 .
  | Wigner-Seitz cell of the first atom image           0     0     0 .
  | (The Wigner-Seitz cell of the second atom is 0 0 0  by definition.)

  Symmetry information by spglib:
  | Precision set to  0.1E-04
  | Number of Operations  : 2
  | Space group           : 6
  | International         : Pm YF   Sei
  | Schoenflies           : Cs^1
  Input structure read successfully.
  The structure contains       16 atoms,  and a total of        264.000 electrons.

  Input geometry:
  | Unit cell:
  |        3.96280000        0.00000000        0.00000000
  |        0.00000000       13.85500000        0.00000000
  |        0.00000000        0.00000000        3.69640000
  | Atomic structure:
  |       Atom                x [A]            y [A]            z [A]
  |    1: Species Mo            1.62457053        8.35711889        0.92409998
  |    2: Species Mo            0.35682943        1.42961855        0.92409992
  |    3: Species Mo            2.33822991        5.49788460        2.77230006
  |    4: Species Mo            3.60597091       12.42537798        2.77230004
  |    5: Species O            -0.02415925       12.95117746        0.92409997
  |    6: Species O             2.00555953        6.02367718        0.92410000
  |    7: Species O             3.98695936        0.90382324        2.77229999
  |    8: Species O             1.95724068        7.83132214        2.77230004
  |    9: Species O             3.88152114        8.16163427        0.92409999
  |   10: Species O             2.06267857        1.23413523        0.92409994
  |   11: Species O             0.08127883        5.69336535        2.77230006
  |   12: Species O             1.90012130       12.62086516        2.77230001
  |   13: Species O             1.82680505       10.00866483        0.92409999
  |   14: Species O             0.15459468        3.08116736        0.92409996
  |   15: Species O             2.13599450        3.84633175        2.77230002
  |   16: Species O             3.80820482       10.77383602        2.77230002

  Lattice parameters for 3D lattice (in Angstroms) :     3.962800   13.855000    3.696400
  Angle(s) between unit vectors (in degrees)       :    90.000000   90.000000   90.000000


  Quantities derived from the lattice vectors:
  | Reciprocal lattice vector 1:  1.585542  0.000000  0.000000
  | Reciprocal lattice vector 2:  0.000000  0.453496  0.000000
  | Reciprocal lattice vector 3:  0.000000  0.000000  1.699812
  | Unit cell volume                               :   0.202949E+03  A^3

  Fractional coordinates:
                         L1                L2                L3
       atom_frac         0.40995522        0.60318433        0.24999999  Mo
       atom_frac         0.09004477        0.10318431        0.24999998  Mo
       atom_frac         0.59004490        0.39681592        0.75000002  Mo
       atom_frac         0.90995531        0.89681544        0.75000001  Mo
       atom_frac        -0.00609651        0.93476561        0.24999999  O
       atom_frac         0.50609658        0.43476558        0.25000000  O
       atom_frac         1.00609654        0.06523445        0.75000000  O
       atom_frac         0.49390347        0.56523437        0.75000001  O
       atom_frac         0.97948954        0.58907501        0.25000000  O
       atom_frac         0.52051039        0.08907508        0.24999998  O
       atom_frac         0.02051045        0.41092496        0.75000001  O
       atom_frac         0.47948958        0.91092495        0.75000000  O
       atom_frac         0.46098846        0.72238649        0.25000000  O
       atom_frac         0.03901148        0.22238667        0.24999999  O
       atom_frac         0.53901143        0.27761326        0.75000001  O
       atom_frac         0.96098840        0.77761357        0.75000001  O

 
  Finished reading input file 'control.in'.
 

------------------------------------------------------------
          Reading geometry description geometry.in.
------------------------------------------------------------
 
  Consistency checks for stacksize environment parameter are next.
 
  | Maximum stacksize for task 0: unlimited
  | Maximum stacksize for task 1: unlimited
  | Maximum stacksize for task 2: unlimited
  | Maximum stacksize for task 3: unlimited
  | Maximum stacksize for task 4: unlimited
  | Maximum stacksize for task 5: unlimited
  | Maximum stacksize for task 6: unlimited
  | Maximum stacksize for task 7: unlimited
  | Maximum stacksize for task 8: unlimited
  | Maximum stacksize for task 9: unlimited
  | Maximum stacksize for task 10: unlimited
  | Maximum stacksize for task 11: unlimited
  | Maximum stacksize for task 12: unlimited
  | Maximum stacksize for task 13: unlimited
  | Maximum stacksize for task 14: unlimited
  | Maximum stacksize for task 15: unlimited
  | Maximum stacksize for task 16: unlimited
  | Maximum stacksize for task 17: unlimited
  | Maximum stacksize for task 18: unlimited
  | Maximum stacksize for task 19: unlimited
  | Maximum stacksize for task 20: unlimited
  | Maximum stacksize for task 21: unlimited
  | Maximum stacksize for task 22: unlimited
  | Maximum stacksize for task 23: unlimited
  | Maximum stacksize for task 24: unlimited
  | Maximum stacksize for task 25: unlimited
  | Maximum stacksize for task 26: unlimited
  | Maximum stacksize for task 27: unlimited
  | Maximum stacksize for task 28: unlimited
  | Maximum stacksize for task 29: unlimited
  | Maximum stacksize for task 30: unlimited
  | Maximum stacksize for task 31: unlimited
  | Maximum stacksize for task 32: unlimited
  | Maximum stacksize for task 33: unlimited
  | Maximum stacksize for task 34: unlimited
  | Maximum stacksize for task 35: unlimited
  | Maximum stacksize for task 36: unlimited
  | Maximum stacksize for task 37: unlimited
  | Maximum stacksize for task 38: unlimited
  | Maximum stacksize for task 39: unlimited
  | Maximum stacksize for task 40: unlimited
  | Maximum stacksize for task 41: unlimited
  | Maximum stacksize for task 42: unlimited
  | Maximum stacksize for task 43: unlimited
  | Maximum stacksize for task 44: unlimited
  | Maximum stacksize for task 45: unlimited
  | Maximum stacksize for task 46: unlimited
  | Maximum stacksize for task 47: unlimited
  | Maximum stacksize for task 48: unlimited
  | Maximum stacksize for task 49: unlimited
  | Maximum stacksize for task 50: unlimited
  | Maximum stacksize for task 51: unlimited
  | Maximum stacksize for task 52: unlimited
  | Maximum stacksize for task 53: unlimited
  | Maximum stacksize for task 54: unlimited
  | Maximum stacksize for task 55: unlimited
  | Maximum stacksize for task 56: unlimited
  | Maximum stacksize for task 57: unlimited
  | Maximum stacksize for task 58: unlimited
  | Maximum stacksize for task 59: unlimited
  | Maximum stacksize for task 60: unlimited
  | Maximum stacksize for task 61: unlimited
  | Maximum stacksize for task 62: unlimited
  | Maximum stacksize for task 63: unlimited
  | Maximum stacksize for task 64: unlimited
  | Maximum stacksize for task 65: unlimited
  | Maximum stacksize for task 66: unlimited
  | Maximum stacksize for task 67: unlimited
  | Maximum stacksize for task 68: unlimited
  | Maximum stacksize for task 69: unlimited
  | Maximum stacksize for task 70: unlimited
  | Maximum stacksize for task 71: unlimited
  | Maximum stacksize for task 72: unlimited
  | Maximum stacksize for task 73: unlimited
  | Maximum stacksize for task 74: unlimited
  | Maximum stacksize for task 75: unlimited
  | Maximum stacksize for task 76: unlimited
  | Maximum stacksize for task 77: unlimited
  | Maximum stacksize for task 78: unlimited
  | Maximum stacksize for task 79: unlimited
  | Maximum stacksize for task 80: unlimited
  | Maximum stacksize for task 81: unlimited
  | Maximum stacksize for task 82: unlimited
  | Maximum stacksize for task 83: unlimited
  | Maximum stacksize for task 84: unlimited
  | Maximum stacksize for task 85: unlimited
  | Maximum stacksize for task 86: unlimited
  | Maximum stacksize for task 87: unlimited
  | Maximum stacksize for task 88: unlimited
  | Maximum stacksize for task 89: unlimited
  | Maximum stacksize for task 90: unlimited
  | Maximum stacksize for task 91: unlimited
  | Maximum stacksize for task 92: unlimited
  | Maximum stacksize for task 93: unlimited
  | Maximum stacksize for task 94: unlimited
  | Maximum stacksize for task 95: unlimited
  | Maximum stacksize for task 96: unlimited
  | Maximum stacksize for task 97: unlimited
  | Maximum stacksize for task 98: unlimited
  | Maximum stacksize for task 99: unlimited
  | Maximum stacksize for task 100: unlimited
  | Maximum stacksize for task 101: unlimited
  | Maximum stacksize for task 102: unlimited
  | Maximum stacksize for task 103: unlimited
  | Maximum stacksize for task 104: unlimited
  | Maximum stacksize for task 105: unlimited
  | Maximum stacksize for task 106: unlimited
  | Maximum stacksize for task 107: unlimited
  | Maximum stacksize for task 108: unlimited
  | Maximum stacksize for task 109: unlimited
  | Maximum stacksize for task 110: unlimited
  | Maximum stacksize for task 111: unlimited
  | Maximum stacksize for task 112: unlimited
  | Maximum stacksize for task 113: unlimited
  | Maximum stacksize for task 114: unlimited
  | Maximum stacksize for task 115: unlimited
  | Maximum stacksize for task 116: unlimited
  | Maximum stacksize for task 117: unlimited
  | Maximum stacksize for task 118: unlimited
  | Maximum stacksize for task 119: unlimited
  | Current stacksize for task 0: unlimited
  | Current stacksize for task 1: unlimited
  | Current stacksize for task 2: unlimited
  | Current stacksize for task 3: unlimited
  | Current stacksize for task 4: unlimited
  | Current stacksize for task 5: unlimited
  | Current stacksize for task 6: unlimited
  | Current stacksize for task 7: unlimited
  | Current stacksize for task 8: unlimited
  | Current stacksize for task 9: unlimited
  | Current stacksize for task 10: unlimited
  | Current stacksize for task 11: unlimited
  | Current stacksize for task 12: unlimited
  | Current stacksize for task 13: unlimited
  | Current stacksize for task 14: unlimited
  | Current stacksize for task 15: unlimited
  | Current stacksize for task 16: unlimited
  | Current stacksize for task 17: unlimited
  | Current stacksize for task 18: unlimited
  | Current stacksize for task 19: unlimited
  | Current stacksize for task 20: unlimited
  | Current stacksize for task 21: unlimited
  | Current stacksize for task 22: unlimited
  | Current stacksize for task 23: unlimited
  | Current stacksize for task 24: unlimited
  | Current stacksize for task 25: unlimited
  | Current stacksize for task 26: unlimited
  | Current stacksize for task 27: unlimited
  | Current stacksize for task 28: unlimited
  | Current stacksize for task 29: unlimited
  | Current stacksize for task 30: unlimited
  | Current stacksize for task 31: unlimited
  | Current stacksize for task 32: unlimited
  | Current stacksize for task 33: unlimited
  | Current stacksize for task 34: unlimited
  | Current stacksize for task 35: unlimited
  | Current stacksize for task 36: unlimited
  | Current stacksize for task 37: unlimited
  | Current stacksize for task 38: unlimited
  | Current stacksize for task 39: unlimited
  | Current stacksize for task 40: unlimited
  | Current stacksize for task 41: unlimited
  | Current stacksize for task 42: unlimited
  | Current stacksize for task 43: unlimited
  | Current stacksize for task 44: unlimited
  | Current stacksize for task 45: unlimited
  | Current stacksize for task 46: unlimited
  | Current stacksize for task 47: unlimited
  | Current stacksize for task 48: unlimited
  | Current stacksize for task 49: unlimited
  | Current stacksize for task 50: unlimited
  | Current stacksize for task 51: unlimited
  | Current stacksize for task 52: unlimited
  | Current stacksize for task 53: unlimited
  | Current stacksize for task 54: unlimited
  | Current stacksize for task 55: unlimited
  | Current stacksize for task 56: unlimited
  | Current stacksize for task 57: unlimited
  | Current stacksize for task 58: unlimited
  | Current stacksize for task 59: unlimited
  | Current stacksize for task 60: unlimited
  | Current stacksize for task 61: unlimited
  | Current stacksize for task 62: unlimited
  | Current stacksize for task 63: unlimited
  | Current stacksize for task 64: unlimited
  | Current stacksize for task 65: unlimited
  | Current stacksize for task 66: unlimited
  | Current stacksize for task 67: unlimited
  | Current stacksize for task 68: unlimited
  | Current stacksize for task 69: unlimited
  | Current stacksize for task 70: unlimited
  | Current stacksize for task 71: unlimited
  | Current stacksize for task 72: unlimited
  | Current stacksize for task 73: unlimited
  | Current stacksize for task 74: unlimited
  | Current stacksize for task 75: unlimited
  | Current stacksize for task 76: unlimited
  | Current stacksize for task 77: unlimited
  | Current stacksize for task 78: unlimited
  | Current stacksize for task 79: unlimited
  | Current stacksize for task 80: unlimited
  | Current stacksize for task 81: unlimited
  | Current stacksize for task 82: unlimited
  | Current stacksize for task 83: unlimited
  | Current stacksize for task 84: unlimited
  | Current stacksize for task 85: unlimited
  | Current stacksize for task 86: unlimited
  | Current stacksize for task 87: unlimited
  | Current stacksize for task 88: unlimited
  | Current stacksize for task 89: unlimited
  | Current stacksize for task 90: unlimited
  | Current stacksize for task 91: unlimited
  | Current stacksize for task 92: unlimited
  | Current stacksize for task 93: unlimited
  | Current stacksize for task 94: unlimited
  | Current stacksize for task 95: unlimited
  | Current stacksize for task 96: unlimited
  | Current stacksize for task 97: unlimited
  | Current stacksize for task 98: unlimited
  | Current stacksize for task 99: unlimited
  | Current stacksize for task 100: unlimited
  | Current stacksize for task 101: unlimited
  | Current stacksize for task 102: unlimited
  | Current stacksize for task 103: unlimited
  | Current stacksize for task 104: unlimited
  | Current stacksize for task 105: unlimited
  | Current stacksize for task 106: unlimited
  | Current stacksize for task 107: unlimited
  | Current stacksize for task 108: unlimited
  | Current stacksize for task 109: unlimited
  | Current stacksize for task 110: unlimited
  | Current stacksize for task 111: unlimited
  | Current stacksize for task 112: unlimited
  | Current stacksize for task 113: unlimited
  | Current stacksize for task 114: unlimited
  | Current stacksize for task 115: unlimited
  | Current stacksize for task 116: unlimited
  | Current stacksize for task 117: unlimited
  | Current stacksize for task 118: unlimited
  | Current stacksize for task 119: unlimited
 
  Consistency checks for the contents of control.in are next.
 
  MPI_IN_PLACE appears to work with this MPI implementation.
  | Keeping use_mpi_in_place .true. (see manual).
  Target number of points in a grid batch is not set. Defaulting to  100
  Method for grid partitioning is not set. Defaulting to parallel hash+maxmin partitioning.
  Batch size limit is not set. Defaulting to    200
  By default, will store active basis functions for each batch.
  If in need of memory, prune_basis_once .false. can be used to disable this option.
  communication_type for Hartree potential was not specified.
  Defaulting to calc_hartree .
  Defaulting to Pulay charge density mixer.
  Pulay mixer: Number of relevant iterations not set.
  Defaulting to    8 iterations.
  Pulay mixer: Number of initial linear mixing iterations not set.
  Defaulting to    0 iterations.
  Work space size for distributed Hartree potential not set.
  Defaulting to   0.200000E+03 MB.
  Mixing parameter for charge density mixing has not been set.
  Using default: charge_mix_param =     0.0500.
  The mixing parameter will be adjusted in iteration number     2 of the first full s.c.f. cycle only.
  Algorithm-dependent basis array size parameters:
  | n_max_pulay                         :        8
  Maximum number of self-consistency iterations not provided.
  Presetting  1000 iterations.
  Presetting      1001 iterations before the initial mixing cycle
  is restarted anyway using the sc_init_iter criterion / keyword.
  Presetting a factor      1.000 between actual scf density residual
  and density convergence criterion sc_accuracy_rho below which sc_init_iter
  takes no effect.
  No maximum number of relaxation steps, defaulting to     1000
  Default initial Hessian is Lindh matrix (thres = 15.00) plus  0.200000E+01 eV/A^2 times unity.
  No maximum energy tolerance for TRM/BFGS moves, defaulting to   0.100000E-02
  Maximum energy tolerance by which TRM/BFGS trajectory may increase over multiple steps:   0.300000E-02
  No harmonic length scale. Defaulting to   0.250000E-01 A.
  No trust radius initializer. Defaulting to   0.200000E+00 A.
  Forces evaluation will include force correction term due to incomplete self-consistency (default).
  Handling of forces: Unphysical translation and rotation will be removed from forces.
  No accuracy limit for integral partition fn. given. Defaulting to  0.1000E-14.
  No threshold value for u(r) in integrations given. Defaulting to  0.1000E-05.
  No accuracy for occupation numbers given. Defaulting to  0.1000E-12.
  No threshold value for occupation numbers given. Defaulting to  0.0000E+00.
  No accuracy for fermi level given. Defaulting to  0.1000E-19.
  Maximum # of iterations to find E_F not set. Defaulting to  200.
  Preferred method for the eigenvalue solver ('KS_method') not specified in 'control.in'.
  Defaulting to serial version, LAPACK (via ELSI), since more k-points than CPUs available.
  Will not use alltoall communication since running on < 1024 CPUs.
  Threshold for basis singularities not set.
  Default threshold for basis singularities:  0.1000E-04
  partition_type (choice of integration weights) for integrals was not specified.
  | Using a version of the partition function of Stratmann and coworkers ('stratmann_sparse').
  | At each grid point, the set of atoms used to build the partition table is smoothly restricted to
  | only those atoms whose free-atom density would be non-zero at that grid point.
  Partitioning for Hartree potential was not defined. Using partition_type for integrals.
  | Adjusted default value of keyword multip_moments_threshold to:       0.10000000E-11
  | This value may affect high angular momentum components of the Hartree potential in periodic systems.
  Angular momentum expansion for Kerker preconditioner not set explicitly.
  | Using default value of   0
  No explicit requirement for turning off preconditioner.
  | By default, it will be turned off when the charge convergence reaches
  | sc_accuracy_rho  =   0.100000E-05
  | sc_accuracy_eev  =   0.100000E-02
  | sc_accuracy_etot =   0.100000E-05
  No special mixing parameter while Kerker preconditioner is on.
  Using default: charge_mix_param =     0.0500.
  No q(lm)/r^(l+1) cutoff set for long-range Hartree potential.
  | Using default value of  0.100000E-09 .
  | Verify using the multipole_threshold keyword.
  Defaulting to new monopole extrapolation.
  Density update method: automatic selection selected.
  Using density matrix based charge density update.
 * Warning: DFT+U requires using density matrix based charge density update.
  Using density matrix based charge density update.
  Using packed matrix style: index .
  Geometry relaxation: A file "geometry.in.next_step" is written out by default after each step.
  | This file contains the geometry of the current relaxation step as well as
  | the current Hessian matrix needed to restart the relaxation algorithm.
  | If you do not want part or all of this information, use the keywords
  | "write_restart_geometry" or "hessian_to_restart_geometry" to switch the output off.
  Defaulting to use time-reversal symmetry for k-point grid.
  Charge integration errors on the 3D integration grid will be compensated
  by explicit normalization and distribution of residual charges.
  Use the "compensate_multipole_errors" flag to change this behaviour.
  Set 'collect_eigenvectors' to be '.true.' for all serial calculations. This is mandatory.
  Set 'collect_eigenvectors' to be '.true.' for KS_method lapack_fast and serial.
 
  Consistency checks for the contents of geometry.in are next.
 

  Range separation radius for Ewald summation (hartree_convergence_parameter):      3.27269809 bohr.
  Number of empty states per atom not set in control.in - providing a guess from actual geometry.
  | Total number of empty states used during s.c.f. cycle:       58
  If you use a very high smearing, use empty_states (per atom!) in control.in to increase this value.

  Structure-dependent array size parameters: 
  | Maximum number of distinct radial functions  :       20
  | Maximum number of basis functions            :      328
  | Number of Kohn-Sham states (occupied + empty):      190
------------------------------------------------------------

------------------------------------------------------------
          Preparing all fixed parts of the calculation.
------------------------------------------------------------
  Determining machine precision:
    2.225073858507201E-308
  Setting up grids for atomic and cluster calculations.

  Creating wave function, potential, and density for free atoms.

  Species: Mo

  List of occupied orbitals and eigenvalues:
    n    l              occ      energy [Ha]    energy [eV]
    1    0           2.0000      -744.270353    -20252.6268
    2    0           2.0000      -103.159815     -2807.1214
    3    0           2.0000       -17.465989      -475.2737
    4    0           2.0000        -2.352267       -64.0084
    5    0           1.0000        -0.144971        -3.9449
    2    1           6.0000       -92.266019     -2510.6861
    3    1           6.0000       -13.913607      -378.6085
    4    1           6.0000        -1.403007       -38.1778
    3    2          10.0000        -8.121664      -221.0017
    4    2           5.0000        -0.131511        -3.5786


  Species: O

  List of occupied orbitals and eigenvalues:
    n    l              occ      energy [Ha]    energy [eV]
    1    0           2.0000       -18.786109      -511.1960
    2    0           2.0000        -0.872635       -23.7456
    2    1           4.0000        -0.337687        -9.1889


  Adding cutoff potential to free-atom effective potential.
  Creating fixed part of basis set: Ionic, confined, hydrogenic.
 
  Mo                   ion:

  List of free ionic orbitals and eigenvalues:
    n    l      energy [Ha]    energy [eV]
    1    0      -744.986513    -20272.1144
    2    0      -103.864343     -2826.2926
    3    0       -18.167662      -494.3672
    4    0        -3.044920       -82.8565
    2    1       -92.970248     -2529.8492
    3    1       -14.615180      -397.6993
    4    1        -2.090292       -56.8797
    3    2        -8.823253      -240.0929
    4    2        -0.773904       -21.0590


  List of ionic basis orbitals and eigenvalues:
    n    l      energy [Ha]    energy [eV]    outer radius [A]
    5    1        -0.468028       -12.7357       4.598077
    5    0        -0.660778       -17.9807       4.542208

 
  Mo                   hydrogenic:
 
  List of hydrogenic basis orbitals: 
    n    l      effective z      eigenvalue [eV]  inner max. [A]     outer max. [A]     outer radius [A]   
    4    3         8.400000       -60.0006           1.009788           1.009788           4.119012
    3    2         2.800000       -11.6571           1.666898           1.666898           4.598077
 
 
  O                    hydrogenic:
 
  List of hydrogenic basis orbitals: 
    n    l      effective z      eigenvalue [eV]  inner max. [A]     outer max. [A]     outer radius [A]   
    2    1         1.800000       -10.9749           1.164242           1.164242           4.578029
    3    2         7.600000       -87.3180           0.624125           0.624125           3.251020
    3    0         6.400000       -61.9207           0.061167           1.081902           4.001998
 
  Creating atomic-like basis functions for current effective potential.

  Species Mo                  :

  List of atomic basis orbitals and eigenvalues:
    n    l      energy [Ha]    energy [eV]    outer radius [A]
    1    0      -744.270353    -20252.6268       0.247552
    2    0      -103.159815     -2807.1214       0.682864
    3    0       -17.465989      -475.2737       1.646644
    4    0        -2.352267       -64.0084       4.019524
    5    0        -0.144971        -3.9449       4.598077
    2    1       -92.266019     -2510.6861       0.699766
    3    1       -13.913607      -378.6085       1.793761
    4    1        -1.403007       -38.1778       4.272881
    3    2        -8.121664      -221.0017       2.181285
    4    2        -0.131511        -3.5786       4.542208


  Species O                   :

  List of atomic basis orbitals and eigenvalues:
    n    l      energy [Ha]    energy [eV]    outer radius [A]
    1    0       -18.786109      -511.1960       1.433179
    2    0        -0.872635       -23.7456       4.413171
    2    1        -0.337687        -9.1889       4.522403

  Assembling full basis from fixed parts.
 * Warning - Since '+U' treatment was requested,
 * the basis-dependent cutoff is turned off automatically.
  | Species Mo :   atomic orbital   1 s accepted.
  | Species Mo :   atomic orbital   2 s accepted.
  | Species Mo :   atomic orbital   3 s accepted.
  | Species Mo :   atomic orbital   4 s accepted.
  | Species Mo :   atomic orbital   5 s accepted.
  | Species Mo :    ionic orbital   5 s accepted.
  | Species Mo :   atomic orbital   2 p accepted.
  | Species Mo :   atomic orbital   3 p accepted.
  | Species Mo :   atomic orbital   4 p accepted.
  | Species Mo :    ionic orbital   5 p accepted.
  | Species Mo :   atomic orbital   3 d accepted.
  | Species Mo :   atomic orbital   4 d accepted.
  | Species Mo :    hydro orbital   3 d accepted.
  | Species Mo :    hydro orbital   4 f accepted.
 * Warning - Since '+U' treatment was requested,
 * the basis-dependent cutoff is turned off automatically.
  | Species O :   atomic orbital   1 s accepted.
  | Species O :   atomic orbital   2 s accepted.
  | Species O :    hydro orbital   3 s accepted.
  | Species O :   atomic orbital   2 p accepted.
  | Species O :    hydro orbital   2 p accepted.
  | Species O :    hydro orbital   3 d accepted.
 
  Basis size parameters after reduction:
  | Total number of radial functions:       20
  | Total number of basis functions :      328
 
  Per-task memory consumption for arrays in subroutine allocate_ext:
  |           7.361568MB.
  Testing on-site integration grid accuracy.
  |  Species  Function  <phi|h_atom|phi> (log., in eV)  <phi|h_atom|phi> (rad., in eV)
           1        1             -20252.6267555834             -20252.5933453298 ***
           1        2              -2807.1213851670              -2807.1209043024
           1        3               -475.2737372046               -475.2737216387
           1        4                -64.0084398884                -64.0084391860
           1        5                 -3.9689103357                 -3.9925762748
           1        6                  7.0990139169                  6.9306799066 ***
           1        7              -2510.6861314810              -2510.6861293032
           1        8               -378.6084979927               -378.6084971797
           1        9                -38.1777730482                -38.1777728279
           1       10                  0.4775754669                  0.4611087391
           1       11               -221.0017165798               -221.0017163007
           1       12                 -3.5813511759                 -3.5840669310
           1       13                  8.0240418542                  7.9738323252 ***
           1       14                 23.3723365126                 23.3723137441
           2       15               -511.1960429777               -511.1959399133
           2       16                -23.7455964041                -23.7455972542
           2       17                 17.3746964700                 17.3748057881
           2       18                 -9.1890598667                 -9.1892026751
           2       19                  8.1915160719                  8.1720639763
           2       20                 45.8005976646                 45.8005620229
 * Note: Onsite integrals marked "***" above are less accurate than
 * onsite_accuracy_threshold =    0.03000 eV. Usually, this is harmless.
 * However, one integral did have a negative value. This integral could be important.
 * When in doubt, tighten the "radial" and/or "radial_multiplier" flags to check.

  Preparing densities etc. for the partition functions (integrals / Hartree potential).

  Preparations completed.
  max(cpu_time)          :      0.471 s.
  Wall clock time (cpu1) :      0.472 s.
------------------------------------------------------------

------------------------------------------------------------
          Begin self-consistency loop: Initialization.

          Date     :  20240813, Time     :  213019.402
------------------------------------------------------------

  Initializing index lists of integration centers etc. from given atomic structure:
  Mapping all atomic coordinates to central unit cell.

  Initializing the k-points
  Using symmetry for reducing the k-points
  | k-points reduced from:      840 to      422
  | Number of k-points                             :       422
  The eigenvectors in the calculations are COMPLEX.
  | K-points in task   0:         3
  | K-points in task   1:         4
  | K-points in task   2:         4
  | K-points in task   3:         4
  | K-points in task   4:         4
  | K-points in task   5:         4
  | K-points in task   6:         4
  | K-points in task   7:         4
  | K-points in task   8:         4
  | K-points in task   9:         4
  | K-points in task  10:         4
  | K-points in task  11:         4
  | K-points in task  12:         4
  | K-points in task  13:         4
  | K-points in task  14:         4
  | K-points in task  15:         4
  | K-points in task  16:         4
  | K-points in task  17:         4
  | K-points in task  18:         4
  | K-points in task  19:         4
  | K-points in task  20:         4
  | K-points in task  21:         4
  | K-points in task  22:         4
  | K-points in task  23:         4
  | K-points in task  24:         4
  | K-points in task  25:         4
  | K-points in task  26:         4
  | K-points in task  27:         4
  | K-points in task  28:         4
  | K-points in task  29:         4
  | K-points in task  30:         4
  | K-points in task  31:         4
  | K-points in task  32:         4
  | K-points in task  33:         4
  | K-points in task  34:         4
  | K-points in task  35:         4
  | K-points in task  36:         4
  | K-points in task  37:         4
  | K-points in task  38:         4
  | K-points in task  39:         4
  | K-points in task  40:         4
  | K-points in task  41:         4
  | K-points in task  42:         4
  | K-points in task  43:         4
  | K-points in task  44:         4
  | K-points in task  45:         4
  | K-points in task  46:         4
  | K-points in task  47:         4
  | K-points in task  48:         4
  | K-points in task  49:         4
  | K-points in task  50:         4
  | K-points in task  51:         4
  | K-points in task  52:         4
  | K-points in task  53:         4
  | K-points in task  54:         4
  | K-points in task  55:         4
  | K-points in task  56:         4
  | K-points in task  57:         4
  | K-points in task  58:         4
  | K-points in task  59:         4
  | K-points in task  60:         4
  | K-points in task  61:         4
  | K-points in task  62:         4
  | K-points in task  63:         3
  | K-points in task  64:         3
  | K-points in task  65:         3
  | K-points in task  66:         3
  | K-points in task  67:         3
  | K-points in task  68:         3
  | K-points in task  69:         3
  | K-points in task  70:         3
  | K-points in task  71:         3
  | K-points in task  72:         3
  | K-points in task  73:         3
  | K-points in task  74:         3
  | K-points in task  75:         3
  | K-points in task  76:         3
  | K-points in task  77:         3
  | K-points in task  78:         3
  | K-points in task  79:         3
  | K-points in task  80:         3
  | K-points in task  81:         3
  | K-points in task  82:         3
  | K-points in task  83:         3
  | K-points in task  84:         3
  | K-points in task  85:         3
  | K-points in task  86:         3
  | K-points in task  87:         3
  | K-points in task  88:         3
  | K-points in task  89:         3
  | K-points in task  90:         3
  | K-points in task  91:         3
  | K-points in task  92:         3
  | K-points in task  93:         3
  | K-points in task  94:         3
  | K-points in task  95:         3
  | K-points in task  96:         3
  | K-points in task  97:         3
  | K-points in task  98:         3
  | K-points in task  99:         3
  | K-points in task 100:         3
  | K-points in task 101:         3
  | K-points in task 102:         3
  | K-points in task 103:         3
  | K-points in task 104:         3
  | K-points in task 105:         3
  | K-points in task 106:         3
  | K-points in task 107:         3
  | K-points in task 108:         3
  | K-points in task 109:         3
  | K-points in task 110:         3
  | K-points in task 111:         3
  | K-points in task 112:         3
  | K-points in task 113:         3
  | K-points in task 114:         3
  | K-points in task 115:         3
  | K-points in task 116:         3
  | K-points in task 117:         3
  | K-points in task 118:         3
  | K-points in task 119:         3
  | Number of basis functions in the Hamiltonian integrals :      4198
  | Number of basis functions in a single unit cell        :       328
  | Number of centers in hartree potential         :      1514
  | Number of centers in hartree multipole         :       948
  | Number of centers in electron density summation:       684
  | Number of centers in basis integrals           :       740
  | Number of centers in integrals                 :       316
  | Number of centers in hamiltonian               :       688
  | Consuming        580 KiB for k_phase.
  | Number of super-cells (origin) [n_cells]                     :         495
  | Number of super-cells (after PM_index) [n_cells]             :          88
  | Number of super-cells in hamiltonian [n_cells_in_hamiltonian]:          88
  | Size of matrix packed + index [n_hamiltonian_matrix_size] :      555897

  Initializing relaxation algorithms.
  Finished initialization of distributed Hessian storage.
  | Global dimension:        48
  | BLACS block size:         1
  | Number of workers:       48

  | Estimated reciprocal-space cutoff momentum G_max:         2.87603147 bohr^-1 .
  | Reciprocal lattice points for long-range Hartree potential:     558
  Partitioning the integration grid into batches with parallel hashing+maxmin method.
  | Number of batches:     1383
  | Maximal batch size:     124
  | Minimal batch size:      51
  | Average batch size:      78.294
  | Standard deviation of batch sizes:      17.426

  Integration load balanced across   120 MPI tasks.
  Work distribution over tasks is as follows:
  Task     0 has        900 integration points.
  Task     1 has        935 integration points.
  Task     2 has        961 integration points.
  Task     3 has        936 integration points.
  Task     4 has        897 integration points.
  Task     5 has        957 integration points.
  Task     6 has        877 integration points.
  Task     7 has        870 integration points.
  Task     8 has        880 integration points.
  Task     9 has        891 integration points.
  Task    10 has        895 integration points.
  Task    11 has        929 integration points.
  Task    12 has        934 integration points.
  Task    13 has        891 integration points.
  Task    14 has        873 integration points.
  Task    15 has        963 integration points.
  Task    16 has        881 integration points.
  Task    17 has        905 integration points.
  Task    18 has        866 integration points.
  Task    19 has        878 integration points.
  Task    20 has        927 integration points.
  Task    21 has        876 integration points.
  Task    22 has        950 integration points.
  Task    23 has        883 integration points.
  Task    24 has        896 integration points.
  Task    25 has        879 integration points.
  Task    26 has        911 integration points.
  Task    27 has        869 integration points.
  Task    28 has        879 integration points.
  Task    29 has        899 integration points.
  Task    30 has        873 integration points.
  Task    31 has        882 integration points.
  Task    32 has        866 integration points.
  Task    33 has        889 integration points.
  Task    34 has        884 integration points.
  Task    35 has        875 integration points.
  Task    36 has        925 integration points.
  Task    37 has        932 integration points.
  Task    38 has        932 integration points.
  Task    39 has        883 integration points.
  Task    40 has        885 integration points.
  Task    41 has        882 integration points.
  Task    42 has        895 integration points.
  Task    43 has        876 integration points.
  Task    44 has        875 integration points.
  Task    45 has        957 integration points.
  Task    46 has        885 integration points.
  Task    47 has        909 integration points.
  Task    48 has        961 integration points.
  Task    49 has        878 integration points.
  Task    50 has        870 integration points.
  Task    51 has        956 integration points.
  Task    52 has        892 integration points.
  Task    53 has        959 integration points.
  Task    54 has        881 integration points.
  Task    55 has        924 integration points.
  Task    56 has        953 integration points.
  Task    57 has        889 integration points.
  Task    58 has        925 integration points.
  Task    59 has        872 integration points.
  Task    60 has        878 integration points.
  Task    61 has        880 integration points.
  Task    62 has        870 integration points.
  Task    63 has        894 integration points.
  Task    64 has        927 integration points.
  Task    65 has        880 integration points.
  Task    66 has        862 integration points.
  Task    67 has        953 integration points.
  Task    68 has        865 integration points.
  Task    69 has        955 integration points.
  Task    70 has        905 integration points.
  Task    71 has        877 integration points.
  Task    72 has        896 integration points.
  Task    73 has        873 integration points.
  Task    74 has        873 integration points.
  Task    75 has        882 integration points.
  Task    76 has        891 integration points.
  Task    77 has        894 integration points.
  Task    78 has        958 integration points.
  Task    79 has        879 integration points.
  Task    80 has        930 integration points.
  Task    81 has        961 integration points.
  Task    82 has        864 integration points.
  Task    83 has        959 integration points.
  Task    84 has        891 integration points.
  Task    85 has        866 integration points.
  Task    86 has        903 integration points.
  Task    87 has        877 integration points.
  Task    88 has        908 integration points.
  Task    89 has        897 integration points.
  Task    90 has        929 integration points.
  Task    91 has        872 integration points.
  Task    92 has        877 integration points.
  Task    93 has        937 integration points.
  Task    94 has        934 integration points.
  Task    95 has        896 integration points.
  Task    96 has        896 integration points.
  Task    97 has        877 integration points.
  Task    98 has        900 integration points.
  Task    99 has        898 integration points.
  Task   100 has        927 integration points.
  Task   101 has        868 integration points.
  Task   102 has        927 integration points.
  Task   103 has        937 integration points.
  Task   104 has        933 integration points.
  Task   105 has        922 integration points.
  Task   106 has        925 integration points.
  Task   107 has        933 integration points.
  Task   108 has        875 integration points.
  Task   109 has        958 integration points.
  Task   110 has        953 integration points.
  Task   111 has        874 integration points.
  Task   112 has        900 integration points.
  Task   113 has        873 integration points.
  Task   114 has        909 integration points.
  Task   115 has        903 integration points.
  Task   116 has        861 integration points.
  Task   117 has        886 integration points.
  Task   118 has        893 integration points.
  Task   119 has        906 integration points.
  Initializing partition tables, free-atom densities, potentials, etc. across the integration grid (initialize_grid_storage).
  | initialize_grid_storage: Actual outermost partition radius vs. multipole_radius_free
  | (-- VB: in principle, multipole_radius_free should be larger, hence this output)
  | Species        1: Confinement radius =              4.999999999999999 AA, multipole_radius_free =              5.008883881164426 AA.
  | Species        1: outer_partition_radius set to              5.008883881164426 AA .
  | Species        2: Confinement radius =              4.999999999999999 AA, multipole_radius_free =              5.048384829883283 AA.
  | Species        2: outer_partition_radius set to              5.048384829883283 AA .
  | The sparse table of interatomic distances needs       1710.61 kbyte instead of      4380.80 kbyte of memory.
  | Net number of integration points:   108280
  | of which are non-zero points    :    90320
  | Numerical average free-atom electrostatic potential    :    -14.98544921 eV
  Renormalizing the initial density to the exact electron count on the 3D integration grid.
  | Initial density: Formal number of electrons (from input files) :     264.0000000000
  | Integrated number of electrons on 3D grid     :     263.9990492050
  | Charge integration error                      :      -0.0009507950
  | Normalization factor for density and gradient :       1.0000036015
  Renormalizing the free-atom superposition density to the exact electron count on the 3D integration grid.
  | Formal number of electrons (from input files) :     264.0000000000
  | Integrated number of electrons on 3D grid     :     263.9990492050
  | Charge integration error                      :      -0.0009507950
  | Normalization factor for density and gradient :       1.0000036015
  Obtaining max. number of non-zero basis functions in each batch (get_n_compute_maxes).
  | Maximal number of non-zero basis functions:      644 in task     0
  | Maximal number of non-zero basis functions:      653 in task     1
  | Maximal number of non-zero basis functions:      630 in task     2
  | Maximal number of non-zero basis functions:      646 in task     3
  | Maximal number of non-zero basis functions:      684 in task     4
  | Maximal number of non-zero basis functions:      682 in task     5
  | Maximal number of non-zero basis functions:      639 in task     6
  | Maximal number of non-zero basis functions:      630 in task     7
  | Maximal number of non-zero basis functions:      632 in task     8
  | Maximal number of non-zero basis functions:      654 in task     9
  | Maximal number of non-zero basis functions:      624 in task    10
  | Maximal number of non-zero basis functions:      633 in task    11
  | Maximal number of non-zero basis functions:      667 in task    12
  | Maximal number of non-zero basis functions:      626 in task    13
  | Maximal number of non-zero basis functions:      601 in task    14
  | Maximal number of non-zero basis functions:      627 in task    15
  | Maximal number of non-zero basis functions:      629 in task    16
  | Maximal number of non-zero basis functions:      645 in task    17
  | Maximal number of non-zero basis functions:      627 in task    18
  | Maximal number of non-zero basis functions:      637 in task    19
  | Maximal number of non-zero basis functions:      632 in task    20
  | Maximal number of non-zero basis functions:      658 in task    21
  | Maximal number of non-zero basis functions:      631 in task    22
  | Maximal number of non-zero basis functions:      620 in task    23
  | Maximal number of non-zero basis functions:      628 in task    24
  | Maximal number of non-zero basis functions:      635 in task    25
  | Maximal number of non-zero basis functions:      654 in task    26
  | Maximal number of non-zero basis functions:      625 in task    27
  | Maximal number of non-zero basis functions:      628 in task    28
  | Maximal number of non-zero basis functions:      596 in task    29
  | Maximal number of non-zero basis functions:      636 in task    30
  | Maximal number of non-zero basis functions:      645 in task    31
  | Maximal number of non-zero basis functions:      635 in task    32
  | Maximal number of non-zero basis functions:      595 in task    33
  | Maximal number of non-zero basis functions:      628 in task    34
  | Maximal number of non-zero basis functions:      628 in task    35
  | Maximal number of non-zero basis functions:      612 in task    36
  | Maximal number of non-zero basis functions:      624 in task    37
  | Maximal number of non-zero basis functions:      639 in task    38
  | Maximal number of non-zero basis functions:      645 in task    39
  | Maximal number of non-zero basis functions:      627 in task    40
  | Maximal number of non-zero basis functions:      633 in task    41
  | Maximal number of non-zero basis functions:      586 in task    42
  | Maximal number of non-zero basis functions:      630 in task    43
  | Maximal number of non-zero basis functions:      649 in task    44
  | Maximal number of non-zero basis functions:      610 in task    45
  | Maximal number of non-zero basis functions:      624 in task    46
  | Maximal number of non-zero basis functions:      614 in task    47
  | Maximal number of non-zero basis functions:      628 in task    48
  | Maximal number of non-zero basis functions:      674 in task    49
  | Maximal number of non-zero basis functions:      619 in task    50
  | Maximal number of non-zero basis functions:      609 in task    51
  | Maximal number of non-zero basis functions:      632 in task    52
  | Maximal number of non-zero basis functions:      624 in task    53
  | Maximal number of non-zero basis functions:      656 in task    54
  | Maximal number of non-zero basis functions:      649 in task    55
  | Maximal number of non-zero basis functions:      645 in task    56
  | Maximal number of non-zero basis functions:      625 in task    57
  | Maximal number of non-zero basis functions:      624 in task    58
  | Maximal number of non-zero basis functions:      637 in task    59
  | Maximal number of non-zero basis functions:      638 in task    60
  | Maximal number of non-zero basis functions:      641 in task    61
  | Maximal number of non-zero basis functions:      679 in task    62
  | Maximal number of non-zero basis functions:      656 in task    63
  | Maximal number of non-zero basis functions:      634 in task    64
  | Maximal number of non-zero basis functions:      656 in task    65
  | Maximal number of non-zero basis functions:      656 in task    66
  | Maximal number of non-zero basis functions:      614 in task    67
  | Maximal number of non-zero basis functions:      656 in task    68
  | Maximal number of non-zero basis functions:      657 in task    69
  | Maximal number of non-zero basis functions:      656 in task    70
  | Maximal number of non-zero basis functions:      643 in task    71
  | Maximal number of non-zero basis functions:      631 in task    72
  | Maximal number of non-zero basis functions:      627 in task    73
  | Maximal number of non-zero basis functions:      653 in task    74
  | Maximal number of non-zero basis functions:      627 in task    75
  | Maximal number of non-zero basis functions:      627 in task    76
  | Maximal number of non-zero basis functions:      634 in task    77
  | Maximal number of non-zero basis functions:      628 in task    78
  | Maximal number of non-zero basis functions:      656 in task    79
  | Maximal number of non-zero basis functions:      641 in task    80
  | Maximal number of non-zero basis functions:      639 in task    81
  | Maximal number of non-zero basis functions:      628 in task    82
  | Maximal number of non-zero basis functions:      626 in task    83
  | Maximal number of non-zero basis functions:      633 in task    84
  | Maximal number of non-zero basis functions:      624 in task    85
  | Maximal number of non-zero basis functions:      626 in task    86
  | Maximal number of non-zero basis functions:      630 in task    87
  | Maximal number of non-zero basis functions:      630 in task    88
  | Maximal number of non-zero basis functions:      633 in task    89
  | Maximal number of non-zero basis functions:      621 in task    90
  | Maximal number of non-zero basis functions:      613 in task    91
  | Maximal number of non-zero basis functions:      614 in task    92
  | Maximal number of non-zero basis functions:      645 in task    93
  | Maximal number of non-zero basis functions:      628 in task    94
  | Maximal number of non-zero basis functions:      610 in task    95
  | Maximal number of non-zero basis functions:      619 in task    96
  | Maximal number of non-zero basis functions:      627 in task    97
  | Maximal number of non-zero basis functions:      622 in task    98
  | Maximal number of non-zero basis functions:      645 in task    99
  | Maximal number of non-zero basis functions:      656 in task   100
  | Maximal number of non-zero basis functions:      682 in task   101
  | Maximal number of non-zero basis functions:      628 in task   102
  | Maximal number of non-zero basis functions:      656 in task   103
  | Maximal number of non-zero basis functions:      618 in task   104
  | Maximal number of non-zero basis functions:      627 in task   105
  | Maximal number of non-zero basis functions:      634 in task   106
  | Maximal number of non-zero basis functions:      604 in task   107
  | Maximal number of non-zero basis functions:      668 in task   108
  | Maximal number of non-zero basis functions:      643 in task   109
  | Maximal number of non-zero basis functions:      644 in task   110
  | Maximal number of non-zero basis functions:      624 in task   111
  | Maximal number of non-zero basis functions:      637 in task   112
  | Maximal number of non-zero basis functions:      617 in task   113
  | Maximal number of non-zero basis functions:      670 in task   114
  | Maximal number of non-zero basis functions:      627 in task   115
  | Maximal number of non-zero basis functions:      614 in task   116
  | Maximal number of non-zero basis functions:      637 in task   117
  | Maximal number of non-zero basis functions:      629 in task   118
  | Maximal number of non-zero basis functions:      626 in task   119
  Allocating        2.853 MB for KS_eigenvector_complex
  Integrating Hamiltonian matrix: batch-based integration.
  Time summed over all CPUs for integration: real work       10.368 s, elapsed       11.906 s
  Integrating overlap matrix.
  Time summed over all CPUs for integration: real work        6.732 s, elapsed        7.848 s
  Decreasing sparse matrix size:
  | Tolerance:  0.1000E-12
  Hamiltonian matrix
  | Array has   476836 nonzero elements out of   555897 elements
  | Sparsity factor is 0.142
  Overlap matrix
  | Array has   440696 nonzero elements out of   555897 elements
  | Sparsity factor is 0.207
  New size of hamiltonian matrix:      477099

  Updating Kohn-Sham eigenvalues and eigenvectors using ELSI and the (modified) LAPACK eigensolver.
  Singularity check in k-point 120, task 0 (analysis for other k-points/tasks may follow below):
  Overlap matrix is not singular
  | Lowest and highest eigenvalues :  0.1810E-02,  0.6923E+01
  Finished singularity check of overlap matrix
  | Time :     0.023 s
  Starting LAPACK eigensolver
  Finished Cholesky decomposition
  | Time :     0.003 s
  Finished transformation to standard eigenproblem
  | Time :     0.006 s
  Finished solving standard eigenproblem
  | Time :     0.019 s
  Finished back-transformation of eigenvectors
  | Time :     0.002 s

  Obtaining occupation numbers and chemical potential using ELSI.
  | Chemical potential (Fermi level):    -4.50234402 eV
  Writing Kohn-Sham eigenvalues.
  K-point:       1 at    0.000000    0.000000    0.000000 (in units of recip. lattice)

  State    Occupation    Eigenvalue [Ha]    Eigenvalue [eV]
      1       2.00000        -744.281969       -20252.94283
      2       2.00000        -744.281969       -20252.94283
      3       2.00000        -744.281969       -20252.94283
      4       2.00000        -744.281969       -20252.94283
      5       2.00000        -103.171654        -2807.44355
      6       2.00000        -103.171654        -2807.44355
      7       2.00000        -103.171654        -2807.44355
      8       2.00000        -103.171654        -2807.44355
      9       2.00000         -92.277850        -2511.00806
     10       2.00000         -92.277850        -2511.00806
[...]
    142       0.00000          -0.121949           -3.31839
    143       0.00000          -0.114621           -3.11900
    144       0.00000          -0.113167           -3.07943
    145       0.00000          -0.102136           -2.77927
    146       0.00000          -0.099644           -2.71146
    147       0.00000          -0.096100           -2.61500
    148       0.00000          -0.094517           -2.57195
    149       0.00000          -0.060120           -1.63595
    150       0.00000          -0.039358           -1.07098
    151       0.00000          -0.025025           -0.68095
    152       0.00000          -0.002194           -0.05969
    153       0.00000           0.004937            0.13435
    154       0.00000           0.057248            1.55779
    155       0.00000           0.059369            1.61553
    156       0.00000           0.141857            3.86013
    157       0.00000           0.175984            4.78876
    158       0.00000           0.245500            6.68040
    159       0.00000           0.251981            6.85675
    160       0.00000           0.276558            7.52552
    161       0.00000           0.287134            7.81330
    162       0.00000           0.294705            8.01934
    163       0.00000           0.304807            8.29422
    164       0.00000           0.331662            9.02499
    165       0.00000           0.379549           10.32805
    166       0.00000           0.389338           10.59443
    167       0.00000           0.395024           10.74915
    168       0.00000           0.413558           11.25348
    169       0.00000           0.418697           11.39333
    170       0.00000           0.420236           11.43521
    171       0.00000           0.421877           11.47987
    172       0.00000           0.422204           11.48875
    173       0.00000           0.442557           12.04259
    174       0.00000           0.454720           12.37357
    175       0.00000           0.457107           12.43851
    176       0.00000           0.458673           12.48112
    177       0.00000           0.461678           12.56289
    178       0.00000           0.480973           13.08794
    179       0.00000           0.482006           13.11605
    180       0.00000           0.514244           13.99330
    181       0.00000           0.551146           14.99744
    182       0.00000           0.557971           15.18317
    183       0.00000           0.584173           15.89617
    184       0.00000           0.625405           17.01813
    185       0.00000           0.648916           17.65791
    186       0.00000           0.683087           18.58774
    187       0.00000           0.683186           18.59044
    188       0.00000           0.685493           18.65322
    189       0.00000           0.695087           18.91428
    190       0.00000           0.697099           18.96904

  What follows are estimated values for band gap, HOMO, LUMO, etc.
  | They are estimated on a discrete k-point grid and not necessarily exact.
  | For converged numbers, create a DOS and/or band structure plot on a denser k-grid.

  Highest occupied state (VBM) at     -8.57494331 eV (relative to internal zero)
  | Occupation number:      2.00000000
  | K-point:     307 at    0.500000    0.000000    0.466667 (in units of recip. lattice)

  Lowest unoccupied state (CBM) at    -5.86254286 eV (relative to internal zero)
  | Occupation number:      0.00000007
  | K-point:       1 at    0.000000    0.000000    0.000000 (in units of recip. lattice)

  ESTIMATED overall HOMO-LUMO gap:      2.71240045 eV between HOMO at k-point 307 and LUMO at k-point 1
  | This appears to be an indirect band gap.
  | Smallest direct gap :      3.51973211 eV for k_point 32 at    0.071429    0.000000    0.000000 (in units of recip. lattice)
  The gap value is above 0.2 eV. Unless you are using a very sparse k-point grid,
  this system is most likely an insulator or a semiconductor.
  | Chemical Potential                          :    -6.24466627 eV

  Self-consistency cycle converged.


------------------------------------------------------------
  End self-consistency iteration #    11       :  max(cpu_time)    wall_clock(cpu1)
  | Time for this iteration                    :        2.581 s           2.601 s
  | Charge density & force component update    :        1.797 s           1.802 s
  | Density mixing                             :        0.010 s           0.001 s
  | Hartree multipole update                   :        0.002 s           0.002 s
  | Hartree multipole summation                :        0.259 s           0.260 s
  | Hartree pot. SCF incomplete forces         :        0.156 s           0.156 s
  | Integration                                :        0.153 s           0.153 s
  | Solution of K.-S. eqns.                    :        0.200 s           0.201 s
  | Total energy evaluation                    :        0.004 s           0.003 s

  Partial memory accounting:
  | Current value for overall tracked memory usage:
  |   Minimum:       14.834 MB (on task   0)
  |   Maximum:       16.738 MB (on task   1)
  |   Average:       15.818 MB
  | Peak value for overall tracked memory usage:
  |   Minimum:       29.329 MB (on task 100 after allocating d_wave)
  |   Maximum:       33.262 MB (on task   5 after allocating d_wave)
  |   Average:       31.288 MB
  | Largest tracked array allocation so far:
  |   Minimum:        4.242 MB (hamiltonian on task   0)
  |   Maximum:        4.242 MB (hamiltonian on task   0)
  |   Average:        4.242 MB
  Note:  These values currently only include a subset of arrays which are explicitly tracked.
  The "true" memory usage will be greater.
------------------------------------------------------------
  Removing unitary transformations (pure translations, rotations) from forces on atoms.
  Atomic forces before filtering:
  | Net force on center of mass :   0.436766E-06  0.383040E-05 -0.339625E-06 eV/A
  Atomic forces after filtering:
  | Net force on center of mass :  -0.100179E-17 -0.696899E-18  0.233944E-21 eV/A

  Energy and forces in a compact form:
  | Total energy uncorrected      :         -0.470049085079497E+06 eV
  | Total energy corrected        :         -0.470049085079497E+06 eV  <-- do not rely on this value for anything but (periodic) metals
  | Electronic free energy        :         -0.470049085079497E+06 eV
  Total atomic forces (unitary forces cleaned) [eV/Ang]:
  |    1          0.204383605231686E-02         -0.189620002884847E-02         -0.848363048875125E-08
  |    2         -0.204365752851756E-02         -0.190427788476311E-02          0.158370831903409E-06
  |    3         -0.204656017912996E-02          0.190658516107904E-02         -0.537418601773841E-06
  |    4          0.204044331134195E-02          0.189663703459181E-02         -0.102525451237847E-06
  |    5         -0.474801067248935E-03         -0.738450270376900E-03         -0.225223807371814E-07
  |    6          0.475446417635326E-03         -0.740261870792160E-03          0.335002625208611E-06
  |    7          0.474909661801143E-03          0.738368580503216E-03         -0.168434127798505E-07
  |    8         -0.475181274867863E-03          0.739538494695021E-03         -0.344272852966012E-06
  |    9         -0.263472198322735E-02         -0.281087308679326E-03          0.503786766556694E-07
  |   10          0.263517733915944E-02         -0.280376300185270E-03          0.169338035496488E-07
  |   11          0.263812512002745E-02          0.280242636918948E-03          0.613944271917543E-07
  |   12         -0.263170772960616E-02          0.280304225535424E-03          0.135481013478522E-06
  |   13         -0.347968703768191E-03          0.287850524276168E-02          0.695953075728533E-07
  |   14          0.347568629790317E-03          0.288260554661367E-02          0.500108933857359E-07
  |   15          0.347332004851943E-03         -0.288893360787557E-02          0.667421611871370E-07
  |   16         -0.348240070558412E-03         -0.287319965117800E-02          0.881565898501416E-07

  ------------------------------------ 
  Start decomposition of the XC Energy 
  ------------------------------------ 
  X and C from original XC functional choice 
  Hartree-Fock Energy :          0.000000000 Ha              0.000000000 eV
  X Energy            :       -604.637861538 Ha         -16453.033333561 eV
  C Energy            :        -13.747912706 Ha           -374.099738729 eV
  Total XC Energy     :       -618.385774244 Ha         -16827.133072290 eV
  ------------------------------------ 
  LDA X and C from self-consistent density 
  X Energy LDA        :       -554.297171461 Ha         -15083.193459883 eV
  C Energy LDA        :        -22.402127835 Ha           -609.592914125 eV
  ------------------------------------ 
  End decomposition of the XC Energy 
  ------------------------------------ 

------------------------------------------------------------
  Relaxation / MD: End force evaluation.       :  max(cpu_time)    wall_clock(cpu1)
  | Time for this force evaluation             :       13.003 s          13.572 s

------------------------------------------------------------
  Geometry optimization: Attempting to predict improved coordinates.

  Removing unitary transformations (pure translations, rotations) from forces on atoms.
  Atomic forces before filtering:
  | Net force on center of mass :  -0.100179E-17 -0.696899E-18  0.233944E-21 eV/A
  Atomic forces after filtering:
  | Net force on center of mass :  -0.479118E-18 -0.696899E-18  0.106338E-21 eV/A
  Net remaining forces (excluding translations, rotations) in present geometry:
  || Forces on atoms   || =   0.288893E-02 eV/A.
  Maximum force component is  0.288893E-02 eV/A.
  Present geometry is converged.

------------------------------------------------------------
  Final atomic structure:
                         x [A]             y [A]             z [A]
  lattice_vector         3.96280000        0.00000000        0.00000000
  lattice_vector         0.00000000       13.85500000        0.00000000
  lattice_vector         0.00000000        0.00000000        3.69640000

            atom         1.62493102        8.35680128        0.92410000  Mo
            atom         0.35646874        1.42930092        0.92409993  Mo
            atom         2.33786907        5.49819962        2.77230005  Mo
            atom         3.60633131       12.42569818        2.77230005  Mo
            atom        -0.02850563       12.95317657        0.92410001  O
            atom         2.00990571        6.02567794        0.92410001  O
            atom         3.99130560        0.90182250        2.77229997  O
            atom         1.95289428        7.82932298        2.77230004  O
            atom         3.88144346        8.16032793        0.92410003  O
            atom         2.06275632        1.23282734        0.92409996  O
            atom         0.08135655        5.69467295        2.77230001  O
            atom         1.90004365       12.62217177        2.77229999  O
            atom         1.82259240       10.00613132        0.92410000  O
            atom         0.15880757        3.07863089        0.92409995  O
            atom         2.14020757        3.84886976        2.77230000  O
            atom         3.80399238       10.77636804        2.77230001  O

  Fractional coordinates:
                         L1                L2                L3
       atom_frac         0.41004619        0.60316141        0.25000000  Mo
       atom_frac         0.08995376        0.10316138        0.24999998  Mo
       atom_frac         0.58995384        0.39683866        0.75000001  Mo
       atom_frac         0.91004626        0.89683856        0.75000001  Mo
       atom_frac        -0.00719331        0.93490989        0.25000000  O
       atom_frac         0.50719333        0.43490999        0.25000000  O
       atom_frac         1.00719330        0.06509004        0.74999999  O
       atom_frac         0.49280667        0.56509007        0.75000001  O
       atom_frac         0.97946994        0.58898072        0.25000001  O
       atom_frac         0.52053001        0.08898068        0.24999999  O
       atom_frac         0.02053007        0.41101934        0.75000000  O
       atom_frac         0.47946998        0.91101925        0.75000000  O
       atom_frac         0.45992541        0.72220363        0.25000000  O
       atom_frac         0.04007459        0.22220360        0.24999999  O
       atom_frac         0.54007459        0.27779645        0.75000000  O
       atom_frac         0.95992540        0.77779632        0.75000000  O
------------------------------------------------------------

------------------------------------------------------------------------------
  Final output of selected total energy values:

  The following output summarizes some interesting total energy values
  at the end of a run (AFTER all relaxation, molecular dynamics, etc.).

  | Total energy of the DFT / Hartree-Fock s.c.f. calculation      :        -470049.085079497 eV
  | Final zero-broadening corrected energy (caution - metals only) :        -470049.085079497 eV
  | For reference only, the value of 1 Hartree used in FHI-aims is :             27.211384500 eV
  | For reference only, the overall average (free atom contribution
  | + realspace contribution) of the electrostatic potential after
  | s.c.f. convergence is                                          :            -14.380450675 eV

  Before relying on these values, please be sure to understand exactly which
  total energy value is referred to by a given number. Different objects may
  all carry the same name 'total energy'. Definitions:

  Total energy of the DFT / Hartree-Fock s.c.f. calculation:
  | Note that this energy does not include ANY quantities calculated after the
  | s.c.f. cycle, in particular not ANY RPA, MP2, etc. many-body perturbation terms.

  Final zero-broadening corrected energy:
  | For metallic systems only, a broadening of the occupation numbers at the Fermi
  | level can be extrapolated back to zero broadening by an electron-gas inspired
  | formula. For all systems that are not real metals, this value can be
  | meaningless and should be avoided.

------------------------------------------------------------------------------
  Methods described in the following list of references were used in this FHI-aims run.
  If you publish the results, please make sure to cite these reference if they apply.
  FHI-aims is an academic code, and for our developers (often, Ph.D. students
  and postdocs), scientific credit in the community is essential.
  Thank you for helping us!

  For any use of FHI-aims, please cite:

    Volker Blum, Ralf Gehrke, Felix Hanke, Paula Havu, Ville Havu,
    Xinguo Ren, Karsten Reuter, and Matthias Scheffler
    'Ab initio molecular simulations with numeric atom-centered orbitals'
    Computer Physics Communications 180, 2175-2196 (2009)
    http://dx.doi.org/10.1016/j.cpc.2009.06.022


  The provided symmetry information was generated with SPGlib:

    Atsushi Togo, Yusuke Seto, Dimitar Pashov
    SPGlib 1.7.3 obtained from http://spglib.sourceforge.net
    Copyright (C) 2008 Atsushi Togo


 DFT+U infrastructure was used in your run
 please cite:

 Matthias Kick, Karsten Reuter and Harald Oberhofer,
 Intricacies Of DFT+U, not only in a Numeric Atom Centered Orbital Framework

 Journal of Chemical Theory and Computation
 https://


  The ELSI infrastructure was used in your run to solve the Kohn-Sham electronic structure.
  Please check out http://elsi-interchange.org to learn more.
  If scalability is important for your project, please acknowledge ELSI by citing:

    V. W-z. Yu, F. Corsetti, A. Garcia, W. P. Huhn, M. Jacquelin, W. Jia,
    B. Lange, L. Lin, J. Lu, W. Mi, A. Seifitokaldani, A. Vazquez-Mayagoitia,
    C. Yang, H. Yang, and V. Blum
    'ELSI: A unified software interface for Kohn-Sham electronic structure solvers'
    Computer Physics Communications 222, 267-285 (2018).
    http://dx.doi.org/10.1016/j.cpc.2017.09.007


  For the real-space grid partitioning and parallelization used in this calculation, please cite:

    Ville Havu, Volker Blum, Paula Havu, and Matthias Scheffler,
    'Efficient O(N) integration for all-electron electronic structure calculation'
    'using numerically tabulated basis functions'
    Journal of Computational Physics 228, 8367-8379 (2009).
    http://dx.doi.org/10.1016/j.jcp.2009.08.008

  Of course, there are many other important community references, e.g., those cited in the
  above references. Our list is limited to references that describe implementations in the
  FHI-aims code. The reason is purely practical (length of this list) - please credit others as well.

 * A warning was issued further up regarding the accuracy of onsite integrals.
   An integral with a negative eigenvalue was among the flagged integrals.
   In most standard situations, this warning is probably harmless.
   If needed, this can be verified by adjusting the radial_multiplier flag.

------------------------------------------------------------
          Leaving FHI-aims.
          Date     :  20240813, Time     :  213139.091

          Computational steps:
          | Number of self-consistency cycles          :           74
          | Number of SCF (re)initializations          :            4
          | Number of relaxation steps                 :            3

          Detailed time accounting                     :  max(cpu_time)    wall_clock(cpu1)
          | Total time                                 :       79.418 s          80.338 s
          | Preparation time                           :        0.471 s           0.472 s
          | Boundary condition initalization           :        0.594 s           0.596 s
          | Grid partitioning                          :        0.193 s           0.186 s
          | Preloading free-atom quantities on grid    :        0.316 s           0.322 s
          | Free-atom superposition energy             :        0.035 s           0.035 s
          | Total time for integrations                :       14.066 s          14.070 s
          | Total time for solution of K.-S. equations :       16.073 s          16.415 s
          | Total time for EV reorthonormalization     :        0.148 s           0.114 s
          | Total time for density & force components  :       29.423 s          29.502 s
          | Total time for mixing & preconditioning    :        5.972 s           5.467 s
          | Total time for Hartree multipole update    :        0.128 s           0.151 s
          | Total time for Hartree multipole sum       :        8.384 s           8.411 s
          | Total time for total energy evaluation     :        0.639 s           0.489 s
          | Total time NSC force correction            :        1.265 s           1.416 s
          | Total time for scaled ZORA corrections     :        0.000 s           0.000 s

          Partial memory accounting:
          | Residual value for overall tracked memory usage across tasks:     0.000000 MB (should be 0.000000 MB)
          | Peak values for overall tracked memory usage:
          |   Minimum:       29.329 MB (on task 100 after allocating d_wave)
          |   Maximum:       33.262 MB (on task   5 after allocating d_wave)
          |   Average:       31.288 MB
          | Largest tracked array allocation:
          |   Minimum:        4.242 MB (hamiltonian on task   0)
          |   Maximum:        4.242 MB (hamiltonian on task   0)
          |   Average:        4.242 MB
          Note:  These values currently only include a subset of arrays which are explicitly tracked.
          The "true" memory usage will be greater.

          Have a nice day.
------------------------------------------------------------
