------------------------------------------------------------
          Invoking FHI-aims ...

          When using FHI-aims, please cite the following reference:

            Volker Blum, Ralf Gehrke, Felix Hanke, Paula Havu,
            Ville Havu, Xinguo Ren, Karsten Reuter, and Matthias Scheffler,
            'Ab Initio Molecular Simulations with Numeric Atom-Centered Orbitals',
            Computer Physics Communications 180, 2175-2196 (2009)

          In addition, many other developments in FHI-aims are likely important for
          your particular application. If so, please cite them. A partial list of references
          is written at the end of this file. Thank you for giving credit to the authors
          of these developments.

          For general information about FHI-aims please find us at

            https://fhi-aims.org

          Online tutorials can be found at

            https://fhi-aims-club.gitlab.io/tutorials/tutorials-overview/

          For any questions about FHI-aims, please visit our slack channel at

            https://fhi-aims.slack.com

          and our main development and support site at

            https://aims-git.rz-berlin.mpg.de .

          The latter site, in particular, has a wiki to collect information, as well
          as an issue tracker to log discussions, suggest improvements, and report issues
          or bugs. https://aims-git.rz-berlin.mpg.de is also the main development site
          of the project and all new and updated code versions can be obtained there.
          Please send an email to aims-coordinators@fhi-berlin.mpg.de and we will add
          you to these sites. They are for you and everyone is welcome there.

------------------------------------------------------------



  Date     :  20240522, Time     :  174734.248
  Time zero on CPU 1             :   0.296111000000000E+00  s.
  Internal wall clock time zero  :           485632054.248  s.

  FHI-aims created a unique identifier for this run for later identification
  aims_uuid : 73635EAD-4188-475C-AA6A-5275CCFF8391

  Build configuration of the current instance of FHI-aims
  -------------------------------------------------------
  FHI-aims version      : 230612
  Commit number         : 0c86b0d53
  CMake host system     : Linux-3.10.0-1160.80.1.el7.x86_64
  CMake version         : 3.24.2
  Fortran compiler      : /apps/compilers/intel/2018.2/compilers_and_libraries_2018/linux/mpi/intel64/bin/mpif90 (Intel) version 18.0.2.20180210
  Fortran compiler flags: -O3 -ip -fp-model precise
  C compiler            : /apps/compilers/intel/2018.2/compilers_and_libraries_2018/linux/bin/intel64/icc (Intel) version 18.0.2.20180210
  C compiler flags      : -O3 -ip -fp-model precise -std=gnu99
  HIP compiler          :
  HIP compiler flags    :
  HIP GPU arch          :
  ELPA2 kernel          : AVX2
  Using MPI
  Using ScaLAPACK
  Using LibXC
  Using i-PI
  Using RLSY
  Linking against: /apps/compilers/intel/2018.2/compilers_and_libraries_2018/linux/mkl/lib/intel64/libmkl_intel_lp64.so
                   /apps/compilers/intel/2018.2/compilers_and_libraries_2018/linux/mkl/lib/intel64/libmkl_intel_thread.so
                   /apps/compilers/intel/2018.2/compilers_and_libraries_2018/linux/mkl/lib/intel64/libmkl_core.so
                   /apps/compilers/intel/2018.2/compilers_and_libraries_2018/linux/mkl/lib/intel64/libmkl_blacs_intelmpi_lp64.so
                   /apps/compilers/intel/2018.2/compilers_and_libraries_2018/linux/mkl/lib/intel64/libmkl_scalapack_lp64.so
                   /usr/lib64/libpthread.so

  Using      200 parallel tasks.
  Task        0 on host ccs1001 reporting.
  Task        1 on host ccs1001 reporting.
  Task        2 on host ccs1001 reporting.
  Task        3 on host ccs1001 reporting.
  Task        4 on host ccs1001 reporting.
  Task        5 on host ccs1001 reporting.
  Task        6 on host ccs1001 reporting.
  Task        7 on host ccs1001 reporting.
  Task        8 on host ccs1001 reporting.
  Task        9 on host ccs1001 reporting.
  Task       10 on host ccs1001 reporting.
  Task       11 on host ccs1001 reporting.
  Task       12 on host ccs1001 reporting.
  Task       13 on host ccs1001 reporting.
  Task       14 on host ccs1001 reporting.
  Task       15 on host ccs1001 reporting.
  Task       16 on host ccs1001 reporting.
  Task       17 on host ccs1001 reporting.
  Task       18 on host ccs1001 reporting.
  Task       19 on host ccs1001 reporting.
  Task       20 on host ccs1001 reporting.
  Task       21 on host ccs1001 reporting.
  Task       22 on host ccs1001 reporting.
  Task       23 on host ccs1001 reporting.
  Task       24 on host ccs1001 reporting.
  Task       25 on host ccs1001 reporting.
  Task       26 on host ccs1001 reporting.
  Task       27 on host ccs1001 reporting.
  Task       28 on host ccs1001 reporting.
  Task       29 on host ccs1001 reporting.
  Task       30 on host ccs1001 reporting.
  Task       31 on host ccs1001 reporting.
  Task       32 on host ccs1001 reporting.
  Task       33 on host ccs1001 reporting.
  Task       34 on host ccs1001 reporting.
  Task       35 on host ccs1001 reporting.
  Task       36 on host ccs1001 reporting.
  Task       37 on host ccs1001 reporting.
  Task       38 on host ccs1001 reporting.
  Task       39 on host ccs1001 reporting.
  Task       40 on host ccs1002 reporting.
  Task       41 on host ccs1002 reporting.
  Task       42 on host ccs1002 reporting.
  Task       43 on host ccs1002 reporting.
  Task       44 on host ccs1002 reporting.
  Task       45 on host ccs1002 reporting.
  Task       46 on host ccs1002 reporting.
  Task       47 on host ccs1002 reporting.
  Task       48 on host ccs1002 reporting.
  Task       49 on host ccs1002 reporting.
  Task       50 on host ccs1002 reporting.
  Task       51 on host ccs1002 reporting.
  Task       52 on host ccs1002 reporting.
  Task       53 on host ccs1002 reporting.
  Task       54 on host ccs1002 reporting.
  Task       55 on host ccs1002 reporting.
  Task       56 on host ccs1002 reporting.
  Task       57 on host ccs1002 reporting.
  Task       58 on host ccs1002 reporting.
  Task       59 on host ccs1002 reporting.
  Task       60 on host ccs1002 reporting.
  Task       61 on host ccs1002 reporting.
  Task       62 on host ccs1002 reporting.
  Task       63 on host ccs1002 reporting.
  Task       64 on host ccs1002 reporting.
  Task       65 on host ccs1002 reporting.
  Task       66 on host ccs1002 reporting.
  Task       67 on host ccs1002 reporting.
  Task       68 on host ccs1002 reporting.
  Task       69 on host ccs1002 reporting.
  Task       70 on host ccs1002 reporting.
  Task       71 on host ccs1002 reporting.
  Task       72 on host ccs1002 reporting.
  Task       73 on host ccs1002 reporting.
  Task       74 on host ccs1002 reporting.
  Task       75 on host ccs1002 reporting.
  Task       76 on host ccs1002 reporting.
  Task       77 on host ccs1002 reporting.
  Task       78 on host ccs1002 reporting.
  Task       79 on host ccs1002 reporting.
  Task       80 on host ccs1005 reporting.
  Task       81 on host ccs1005 reporting.
  Task       82 on host ccs1005 reporting.
  Task       83 on host ccs1005 reporting.
  Task       84 on host ccs1005 reporting.
  Task       85 on host ccs1005 reporting.
  Task       86 on host ccs1005 reporting.
  Task       87 on host ccs1005 reporting.
  Task       88 on host ccs1005 reporting.
  Task       89 on host ccs1005 reporting.
  Task       90 on host ccs1005 reporting.
  Task       91 on host ccs1005 reporting.
  Task       92 on host ccs1005 reporting.
  Task       93 on host ccs1005 reporting.
  Task       94 on host ccs1005 reporting.
  Task       95 on host ccs1005 reporting.
  Task       96 on host ccs1005 reporting.
  Task       97 on host ccs1005 reporting.
  Task       98 on host ccs1005 reporting.
  Task       99 on host ccs1005 reporting.
  Task      100 on host ccs1005 reporting.
  Task      101 on host ccs1005 reporting.
  Task      102 on host ccs1005 reporting.
  Task      103 on host ccs1005 reporting.
  Task      104 on host ccs1005 reporting.
  Task      105 on host ccs1005 reporting.
  Task      106 on host ccs1005 reporting.
  Task      107 on host ccs1005 reporting.
  Task      108 on host ccs1005 reporting.
  Task      109 on host ccs1005 reporting.
  Task      110 on host ccs1005 reporting.
  Task      111 on host ccs1005 reporting.
  Task      112 on host ccs1005 reporting.
  Task      113 on host ccs1005 reporting.
  Task      114 on host ccs1005 reporting.
  Task      115 on host ccs1005 reporting.
  Task      116 on host ccs1005 reporting.
  Task      117 on host ccs1005 reporting.
  Task      118 on host ccs1005 reporting.
  Task      119 on host ccs1005 reporting.
  Task      120 on host ccs1006 reporting.
  Task      121 on host ccs1006 reporting.
  Task      122 on host ccs1006 reporting.
  Task      123 on host ccs1006 reporting.
  Task      124 on host ccs1006 reporting.
  Task      125 on host ccs1006 reporting.
  Task      126 on host ccs1006 reporting.
  Task      127 on host ccs1006 reporting.
  Task      128 on host ccs1006 reporting.
  Task      129 on host ccs1006 reporting.
  Task      130 on host ccs1006 reporting.
  Task      131 on host ccs1006 reporting.
  Task      132 on host ccs1006 reporting.
  Task      133 on host ccs1006 reporting.
  Task      134 on host ccs1006 reporting.
  Task      135 on host ccs1006 reporting.
  Task      136 on host ccs1006 reporting.
  Task      137 on host ccs1006 reporting.
  Task      138 on host ccs1006 reporting.
  Task      139 on host ccs1006 reporting.
  Task      140 on host ccs1006 reporting.
  Task      141 on host ccs1006 reporting.
  Task      142 on host ccs1006 reporting.
  Task      143 on host ccs1006 reporting.
  Task      144 on host ccs1006 reporting.
  Task      145 on host ccs1006 reporting.
  Task      146 on host ccs1006 reporting.
  Task      147 on host ccs1006 reporting.
  Task      148 on host ccs1006 reporting.
  Task      149 on host ccs1006 reporting.
  Task      150 on host ccs1006 reporting.
  Task      151 on host ccs1006 reporting.
  Task      152 on host ccs1006 reporting.
  Task      153 on host ccs1006 reporting.
  Task      154 on host ccs1006 reporting.
  Task      155 on host ccs1006 reporting.
  Task      156 on host ccs1006 reporting.
  Task      157 on host ccs1006 reporting.
  Task      158 on host ccs1006 reporting.
  Task      159 on host ccs1006 reporting.
  Task      160 on host ccs1013 reporting.
  Task      161 on host ccs1013 reporting.
  Task      162 on host ccs1013 reporting.
  Task      163 on host ccs1013 reporting.
  Task      164 on host ccs1013 reporting.
  Task      165 on host ccs1013 reporting.
  Task      166 on host ccs1013 reporting.
  Task      167 on host ccs1013 reporting.
  Task      168 on host ccs1013 reporting.
  Task      169 on host ccs1013 reporting.
  Task      170 on host ccs1013 reporting.
  Task      171 on host ccs1013 reporting.
  Task      172 on host ccs1013 reporting.
  Task      173 on host ccs1013 reporting.
  Task      174 on host ccs1013 reporting.
  Task      175 on host ccs1013 reporting.
  Task      176 on host ccs1013 reporting.
  Task      177 on host ccs1013 reporting.
  Task      178 on host ccs1013 reporting.
  Task      179 on host ccs1013 reporting.
  Task      180 on host ccs1013 reporting.
  Task      181 on host ccs1013 reporting.
  Task      182 on host ccs1013 reporting.
  Task      183 on host ccs1013 reporting.
  Task      184 on host ccs1013 reporting.
  Task      185 on host ccs1013 reporting.
  Task      186 on host ccs1013 reporting.
  Task      187 on host ccs1013 reporting.
  Task      188 on host ccs1013 reporting.
  Task      189 on host ccs1013 reporting.
  Task      190 on host ccs1013 reporting.
  Task      191 on host ccs1013 reporting.
  Task      192 on host ccs1013 reporting.
  Task      193 on host ccs1013 reporting.
  Task      194 on host ccs1013 reporting.
  Task      195 on host ccs1013 reporting.
  Task      196 on host ccs1013 reporting.
  Task      197 on host ccs1013 reporting.
  Task      198 on host ccs1013 reporting.
  Task      199 on host ccs1013 reporting.

  Obtaining array dimensions for all initial allocations:
  
  -----------------------------------------------------------------------
  Parsing control.in (first pass over file, find array dimensions only).
  The contents of control.in will be repeated verbatim below
  unless switched off by setting 'verbatim_writeout .false.' .
  in the first line of control.in .
  -----------------------------------------------------------------------
  
  #===============================================================================
  # FHI-aims file: ./control.in
  # Created using the Atomic Simulation Environment (ASE)
  # Wed May 22 17:47:32 2024
  #===============================================================================
  spin                               none
  relativistic                       atomic_zora scalar
  compute_forces                     .true.
  xc                                 pbe0
  k_grid                             14 4 15
  occupation_type                    gaussian 0.1
  plus_u_petukhov_mixing             1
  plus_u_matrix_control              True
  sc_accuracy_etot                   1e-06
  sc_accuracy_eev                    0.001
  sc_accuracy_rho                    1e-06
  sc_accuracy_forces                 0.0001
  #===============================================================================
  
  ################################################################################
  #
  #  FHI-aims code project
  #  VB, Fritz-Haber Institut, 2009
  #
  #  Suggested "light" defaults for Mo atom (to be pasted into control.in file)
  #  Be sure to double-check any results obtained with these settings for post-processing,
  #  e.g., with the "tight" defaults and larger basis sets.
  #
  ################################################################################
    species        Mo
  #     global species definitions
      nucleus             42
      mass                95.94
  #
      l_hartree           4
  #
      cut_pot             3.5  1.5  1.0
      basis_dep_cutoff    1e-4
  #
      radial_base         59 5.0
      radial_multiplier   1
      angular_grids specified
        division   0.4847   50
        division   0.9168  110
        division   1.2280  194
        division   1.6402  302
  #      division   1.8849  434
  #      division   2.0237  590
  #      division   2.0980  974
  #      division   2.7405 1202
  #      outer_grid  974
        outer_grid  302
  ################################################################################
  #
  #  Definition of "minimal" basis
  #
  ################################################################################
  #     valence basis states
      valence      5  s   1.
      valence      4  p   6.
      valence      4  d   5.
  #     ion occupancy
      ion_occ     5  s   0.
      ion_occ     4  p   6.
      ion_occ     4  d   4.
  ################################################################################
  #
  #  Suggested additional basis functions. For production calculations,
  #  uncomment them one after another (the most important basis functions are
  #  listed first).
  #
  #  Constructed for dimers: 1.675 A, 1.9 A, 2.375 A, 3.00 A, 4.00 A
  #
  ################################################################################
  #  "First tier"  - max. impr. -711.23  meV, min. impr. -21.07 meV
       hydro 4 f 8.4
       hydro 3 d 2.8
       ionic 5 p auto
  #     hydro 5 g 12
       ionic 5 s auto
  #  "Second tier" - max. impr. -39.38  meV, min. impr. -2.68 meV
  #     hydro 4 f 12.4
  #     hydro 3 d 3.3
  #     hydro 6 h 17.2
  #     hydro 4 f 7.6
  #     hydro 3 p 3.0
  #     hydro 1 s 0.65
  #  "Third tier"  - max. impr. -5.50 meV, min. impr. -0.47 meV
  #     hydro 4 f 29.2
  #     hydro 5 g 11.2
  #     hydro 3 d 6.8
  #     hydro 6 h 14.8
  #     hydro 2 p 2.3
  #     hydro 4 s 3.8
  #  "Fourth tier"  - max. impr. -0.58 meV, min. impr. -0.19 meV
  #     hydro 5 f 6.8
  #     hydro 5 d 14.8
  #     hydro 6 s 7.8
  #     hydro 5 g 20.8
  #     hydro 5 d 10.4
  #     hydro 5 p 9.8
  #  Further functions - -0.17 meV and below
  #     hydro 5 d 3.2
  plus_u 4 d 0
  ################################################################################
  #
  #  FHI-aims code project
  #  VB, Fritz-Haber Institut, 2009
  #
  #  Suggested "light" defaults for O atom (to be pasted into control.in file)
  #  Be sure to double-check any results obtained with these settings for post-processing,
  #  e.g., with the "tight" defaults and larger basis sets.
  #
  ################################################################################
    species        O
  #     global species definitions
      nucleus             8
      mass                15.9994
  #
      l_hartree           4
  #
      cut_pot             3.5  1.5  1.0
      basis_dep_cutoff    1e-4
  #
      radial_base         36 5.0
      radial_multiplier   1
       angular_grids specified
        division   0.2659   50
        division   0.4451  110
        division   0.6052  194
        division   0.7543  302
  #      division   0.8014  434
  #      division   0.8507  590
  #      division   0.8762  770
  #      division   0.9023  974
  #      division   1.2339 1202
  #      outer_grid 974
        outer_grid 302
  ################################################################################
  #
  #  Definition of "minimal" basis
  #
  ################################################################################
  #     valence basis states
      valence      2  s   2.
      valence      2  p   4.
  #     ion occupancy
      ion_occ      2  s   1.
      ion_occ      2  p   3.
  ################################################################################
  #
  #  Suggested additional basis functions. For production calculations,
  #  uncomment them one after another (the most important basis functions are
  #  listed first).
  #
  #  Constructed for dimers: 1.0 A, 1.208 A, 1.5 A, 2.0 A, 3.0 A
  #
  ################################################################################
  #  "First tier" - improvements: -699.05 meV to -159.38 meV
       hydro 2 p 1.8
       hydro 3 d 7.6
       hydro 3 s 6.4
  #  "Second tier" - improvements: -49.91 meV to -5.39 meV
  #     hydro 4 f 11.6
  #     hydro 3 p 6.2
  #     hydro 3 d 5.6
  #     hydro 5 g 17.6
  #     hydro 1 s 0.75
  #  "Third tier" - improvements: -2.83 meV to -0.50 meV
  #     ionic 2 p auto
  #     hydro 4 f 10.8
  #     hydro 4 d 4.7
  #     hydro 2 s 6.8
  #  "Fourth tier" - improvements: -0.40 meV to -0.12 meV
  #     hydro 3 p 5
  #     hydro 3 s 3.3
  #     hydro 5 g 15.6
  #     hydro 4 f 17.6
  #     hydro 4 d 14
  # Further basis functions - -0.08 meV and below
  #     hydro 3 s 2.1
  #     hydro 4 d 11.6
  #     hydro 3 p 16
  #     hydro 2 s 17.2
  plus_u 2 p 0
  
  -----------------------------------------------------------------------
  Completed first pass over input file control.in .
  -----------------------------------------------------------------------
  
  
  -----------------------------------------------------------------------
  Parsing geometry.in (first pass over file, find array dimensions only).
  The contents of geometry.in will be repeated verbatim below
  unless switched off by setting 'verbatim_writeout .false.' .
  in the first line of geometry.in .
  -----------------------------------------------------------------------
  
  #=======================================================
  # FHI-aims file: ./geometry.in
  # Created using the Atomic Simulation Environment (ASE)
  # Wed May 22 17:47:32 2024
  #=======================================================
  lattice_vector 3.9628000000000001 0.0000000000000000 0.0000000000000000
  lattice_vector 0.0000000000000000 13.8550000000000004 0.0000000000000000
  lattice_vector 0.0000000000000000 0.0000000000000000 3.6964000000000001
  atom_frac 0.4100090812762177 0.6013994607255934 0.2500000005100961 Mo
  atom_frac 0.0899918439568921 0.1013963473822842 0.2499999888642288 Mo
  atom_frac 0.5899918692085088 0.3986036240716450 0.7500000090720667 Mo
  atom_frac 0.9100091196573387 0.8986005465655548 0.7500000063300009 Mo
  atom_frac -0.0046855851424183 0.9362037926512595 0.2500000010638615 O
  atom_frac 0.5046857265199527 0.4362034718457821 0.2500000096710857 O
  atom_frac 1.0046857186858942 0.0637965415611795 0.7499999895269144 O
  atom_frac 0.4953143913220430 0.5637961989730276 0.7499999996139889 O
  atom_frac 0.9800939513019692 0.5880569824265229 0.2500000016814516 O
  atom_frac 0.5199058766592272 0.0880571981836656 0.2499999912754459 O
  atom_frac 0.0199059089574735 0.4119428091819179 0.7500000075523725 O
  atom_frac 0.4800939834574073 0.9119429976325398 0.7499999961456042 O
  atom_frac 0.4629602973988145 0.7199264389255499 0.2500000002354672 O
  atom_frac 0.0370387528675806 0.2199289735246605 0.2499999941387246 O
  atom_frac 0.5370387809387506 0.2800710828980151 0.7500000038628781 O
  atom_frac 0.9629602829343498 0.7800735334508007 0.7500000004558149 O
  
  -----------------------------------------------------------------------
  Completed first pass over input file geometry.in .
  -----------------------------------------------------------------------
  

  Basic array size parameters:
  | Number of species                 :        2
  | Number of atoms                   :       16
  | Number of lattice vectors         :        3
  | Max. basis fn. angular momentum   :        3
  | Max. atomic/ionic basis occupied n:        5
  | Max. number of basis fn. types    :        3
  | Max. radial fns per species/type  :       10
  | Max. logarithmic grid size        :     1436
  | Max. radial integration grid size :       59
  | Max. angular integration grid size:      302
  | Max. angular grid division number :        8
  | Radial grid for Hartree potential :     1436
  | Number of spin channels           :        1
  | Max. number of (n,l) shells per species with '+U' treatment:        1

------------------------------------------------------------
          Reading file control.in.
------------------------------------------------------------
  Spin treatment: No spin polarisation.
  Scalar relativistic treatment of kinetic energy: on-site free-atom approximation to ZORA.
  Forces will be computed.
  XC: Using hybrid-PBE0 functionals.
  Found k-point grid:        14         4        15
  Occupation type: Gaussian broadening, width =   0.100000E+00 eV.
  Fixing petukhov mixing factor to   1.000000000000
  Reading DFT+U occupation matrix, from file
  Convergence accuracy of total energy:  0.1000E-05
  Convergence accuracy of sum of eigenvalues:  0.1000E-02
  Convergence accuracy of self-consistent charge density:  0.1000E-05
  Convergence accuracy of forces:  0.1000E-03
 
  Reading configuration options for species Mo                  .
  | Found nuclear charge :  42.0000
  | Found atomic mass :    95.9400000000000      amu
  | Found l_max for Hartree potential  :   4
  | Found cutoff potl. onset [A], width [A], scale factor :    3.50000    1.50000    1.00000
  | Threshold for basis-dependent cutoff potential is   0.100000E-03
  | Found data for basic radial integration grid :    59 points, outermost radius =    5.000 A
  | Found multiplier for basic radial grid :   1
  | Found angular grid specification: user-specified.
  | Specified grid contains     5 separate shells.
  | Check grid settings after all constraints further below.
  | Found free-atom valence shell :  5 s   1.000
  | Found free-atom valence shell :  4 p   6.000
  | Found free-atom valence shell :  4 d   5.000
  | Found free-ion valence shell :  5 s   0.000
  | Found free-ion valence shell :  4 p   6.000
  | Found free-ion valence shell :  4 d   4.000
  | Found hydrogenic basis function :  4 f   8.400
  | Found hydrogenic basis function :  3 d   2.800
  | Found ionic basis function :  5 p , default cutoff radius.
  | Found ionic basis function :  5 s , default cutoff radius.
  | Found request for '+U' treatment for  4 d shell, U =     0.000000 eV.
  Species Mo                  : Missing cutoff potential type.
  Defaulting to exp(1/x)/(1-x)^2 type cutoff potential.
  Species Mo: No 'logarithmic' tag. Using default grid for free atom:
  | Default logarithmic grid data [bohr] : 0.1000E-03 0.1000E+03 0.1012E+01
  | Will include ionic basis functions of  2.0-fold positive Mo                   ion.
  Species Mo: On-site basis accuracy parameter (for Gram-Schmidt orthonormalisation) not specified.
  Using default value basis_acc =  0.1000000E-03.
  Species Mo                  : Using default innermost maximum threshold i_radial=  2 for radial functions.
  Species Mo                  : Default cutoff onset for free atom density etc. : 0.35000000E+01 AA.
  Species Mo                  : Basic radial grid will be enhanced according to radial_multiplier =   1, to contain    59 grid points.
 
  Reading configuration options for species O                   .
  | Found nuclear charge :   8.0000
  | Found atomic mass :    15.9994000000000      amu
  | Found l_max for Hartree potential  :   4
  | Found cutoff potl. onset [A], width [A], scale factor :    3.50000    1.50000    1.00000
  | Threshold for basis-dependent cutoff potential is   0.100000E-03
  | Found data for basic radial integration grid :    36 points, outermost radius =    5.000 A
  | Found multiplier for basic radial grid :   1
  | Found angular grid specification: user-specified.
  | Specified grid contains     5 separate shells.
  | Check grid settings after all constraints further below.
  | Found free-atom valence shell :  2 s   2.000
  | Found free-atom valence shell :  2 p   4.000
  | Found free-ion valence shell :  2 s   1.000
  | Found free-ion valence shell :  2 p   3.000
  | Found hydrogenic basis function :  2 p   1.800
  | Found hydrogenic basis function :  3 d   7.600
  | Found hydrogenic basis function :  3 s   6.400
  | Found request for '+U' treatment for  2 p shell, U =     0.000000 eV.
  Species O                   : Missing cutoff potential type.
  Defaulting to exp(1/x)/(1-x)^2 type cutoff potential.
  Species O : No 'logarithmic' tag. Using default grid for free atom:
  | Default logarithmic grid data [bohr] : 0.1000E-03 0.1000E+03 0.1012E+01
  Species O : On-site basis accuracy parameter (for Gram-Schmidt orthonormalisation) not specified.
  Using default value basis_acc =  0.1000000E-03.
  Species O                   : Using default innermost maximum threshold i_radial=  2 for radial functions.
  Species O                   : Default cutoff onset for free atom density etc. : 0.35000000E+01 AA.
  Species O                   : Basic radial grid will be enhanced according to radial_multiplier =   1, to contain    36 grid points.
 
  Finished reading input file 'control.in'.
 
------------------------------------------------------------


------------------------------------------------------------
          Reading geometry description geometry.in.
------------------------------------------------------------
  | The smallest distance between any two atoms is         1.65554310 AA.
  | The first atom of this pair is atom number                      1 .
  | The second atom of this pair is atom number                    13 .
  | Wigner-Seitz cell of the first atom image           0     0     0 .
  | (The Wigner-Seitz cell of the second atom is 0 0 0  by definition.)

  Symmetry information by spglib:
  | Precision set to  0.1E-04
  | Number of Operations  : 4
  | Space group           : 31
  | International         : Pmn2_1    8
  | Schoenflies           : C2v^7
  Input structure read successfully.
  The structure contains       16 atoms,  and a total of        264.000 electrons.

  Input geometry:
  | Unit cell:
  |        3.96280000        0.00000000        0.00000000
  |        0.00000000       13.85500000        0.00000000
  |        0.00000000        0.00000000        3.69640000
  | Atomic structure:
  |       Atom                x [A]            y [A]            z [A]
  |    1: Species Mo            1.62478399        8.33238953        0.92410000
  |    2: Species Mo            0.35661968        1.40484639        0.92409996
  |    3: Species Mo            2.33801978        5.52265321        2.77230003
  |    4: Species Mo            3.60618414       12.45011057        2.77230002
  |    5: Species O            -0.01856804       12.97110355        0.92410000
  |    6: Species O             1.99996860        6.04359910        0.92410004
  |    7: Species O             3.98136857        0.88390108        2.77229996
  |    8: Species O             1.96283187        7.81139634        2.77230000
  |    9: Species O             3.88391631        8.14752949        0.92410001
  |   10: Species O             2.06028301        1.22003248        0.92409997
  |   11: Species O             0.07888314        5.70746762        2.77230003
  |   12: Species O             1.90251644       12.63497023        2.77229999
  |   13: Species O             1.83461907        9.97458081        0.92410000
  |   14: Species O             0.14677717        3.04711593        0.92409998
  |   15: Species O             2.12817728        3.88038485        2.77230001
  |   16: Species O             3.81601901       10.80791881        2.77230000

  Lattice parameters for 3D lattice (in Angstroms) :     3.962800   13.855000    3.696400
  Angle(s) between unit vectors (in degrees)       :    90.000000   90.000000   90.000000


  Quantities derived from the lattice vectors (in Angstrom^-1):
  | Reciprocal lattice vector 1:  1.585542  0.000000  0.000000
  | Reciprocal lattice vector 2:  0.000000  0.453496  0.000000
  | Reciprocal lattice vector 3:  0.000000  0.000000  1.699812
  | Unit cell volume                               :   0.202949E+03  Angstrom^3

  Fractional coordinates:
                         L1                L2                L3
       atom_frac         0.41000908        0.60139946        0.25000000  Mo
       atom_frac         0.08999184        0.10139635        0.24999999  Mo
       atom_frac         0.58999187        0.39860362        0.75000001  Mo
       atom_frac         0.91000912        0.89860055        0.75000001  Mo
       atom_frac        -0.00468559        0.93620379        0.25000000  O
       atom_frac         0.50468573        0.43620347        0.25000001  O
       atom_frac         1.00468572        0.06379654        0.74999999  O
       atom_frac         0.49531439        0.56379620        0.75000000  O
       atom_frac         0.98009395        0.58805698        0.25000000  O
       atom_frac         0.51990588        0.08805720        0.24999999  O
       atom_frac         0.01990591        0.41194281        0.75000001  O
       atom_frac         0.48009398        0.91194300        0.75000000  O
       atom_frac         0.46296030        0.71992644        0.25000000  O
       atom_frac         0.03703875        0.21992897        0.24999999  O
       atom_frac         0.53703878        0.28007108        0.75000000  O
       atom_frac         0.96296028        0.78007353        0.75000000  O

 
  Finished reading input file 'geometry.in'.
 

 
  Consistency checks for stacksize environment parameter are next.
 
  | Maximum stacksize for task 0: unlimited
  | Maximum stacksize for task 1: unlimited
  | Maximum stacksize for task 2: unlimited
  | Maximum stacksize for task 3: unlimited
  | Maximum stacksize for task 4: unlimited
  | Maximum stacksize for task 5: unlimited
  | Maximum stacksize for task 6: unlimited
  | Maximum stacksize for task 7: unlimited
  | Maximum stacksize for task 8: unlimited
  | Maximum stacksize for task 9: unlimited
  | Maximum stacksize for task 10: unlimited
  | Maximum stacksize for task 11: unlimited
  | Maximum stacksize for task 12: unlimited
  | Maximum stacksize for task 13: unlimited
  | Maximum stacksize for task 14: unlimited
  | Maximum stacksize for task 15: unlimited
  | Maximum stacksize for task 16: unlimited
  | Maximum stacksize for task 17: unlimited
  | Maximum stacksize for task 18: unlimited
  | Maximum stacksize for task 19: unlimited
  | Maximum stacksize for task 20: unlimited
  | Maximum stacksize for task 21: unlimited
  | Maximum stacksize for task 22: unlimited
  | Maximum stacksize for task 23: unlimited
  | Maximum stacksize for task 24: unlimited
  | Maximum stacksize for task 25: unlimited
  | Maximum stacksize for task 26: unlimited
  | Maximum stacksize for task 27: unlimited
  | Maximum stacksize for task 28: unlimited
  | Maximum stacksize for task 29: unlimited
  | Maximum stacksize for task 30: unlimited
  | Maximum stacksize for task 31: unlimited
  | Maximum stacksize for task 32: unlimited
  | Maximum stacksize for task 33: unlimited
  | Maximum stacksize for task 34: unlimited
  | Maximum stacksize for task 35: unlimited
  | Maximum stacksize for task 36: unlimited
  | Maximum stacksize for task 37: unlimited
  | Maximum stacksize for task 38: unlimited
  | Maximum stacksize for task 39: unlimited
  | Maximum stacksize for task 40: unlimited
  | Maximum stacksize for task 41: unlimited
  | Maximum stacksize for task 42: unlimited
  | Maximum stacksize for task 43: unlimited
  | Maximum stacksize for task 44: unlimited
  | Maximum stacksize for task 45: unlimited
  | Maximum stacksize for task 46: unlimited
  | Maximum stacksize for task 47: unlimited
  | Maximum stacksize for task 48: unlimited
  | Maximum stacksize for task 49: unlimited
  | Maximum stacksize for task 50: unlimited
  | Maximum stacksize for task 51: unlimited
  | Maximum stacksize for task 52: unlimited
  | Maximum stacksize for task 53: unlimited
  | Maximum stacksize for task 54: unlimited
  | Maximum stacksize for task 55: unlimited
  | Maximum stacksize for task 56: unlimited
  | Maximum stacksize for task 57: unlimited
  | Maximum stacksize for task 58: unlimited
  | Maximum stacksize for task 59: unlimited
  | Maximum stacksize for task 60: unlimited
  | Maximum stacksize for task 61: unlimited
  | Maximum stacksize for task 62: unlimited
  | Maximum stacksize for task 63: unlimited
  | Maximum stacksize for task 64: unlimited
  | Maximum stacksize for task 65: unlimited
  | Maximum stacksize for task 66: unlimited
  | Maximum stacksize for task 67: unlimited
  | Maximum stacksize for task 68: unlimited
  | Maximum stacksize for task 69: unlimited
  | Maximum stacksize for task 70: unlimited
  | Maximum stacksize for task 71: unlimited
  | Maximum stacksize for task 72: unlimited
  | Maximum stacksize for task 73: unlimited
  | Maximum stacksize for task 74: unlimited
  | Maximum stacksize for task 75: unlimited
  | Maximum stacksize for task 76: unlimited
  | Maximum stacksize for task 77: unlimited
  | Maximum stacksize for task 78: unlimited
  | Maximum stacksize for task 79: unlimited
  | Maximum stacksize for task 80: unlimited
  | Maximum stacksize for task 81: unlimited
  | Maximum stacksize for task 82: unlimited
  | Maximum stacksize for task 83: unlimited
  | Maximum stacksize for task 84: unlimited
  | Maximum stacksize for task 85: unlimited
  | Maximum stacksize for task 86: unlimited
  | Maximum stacksize for task 87: unlimited
  | Maximum stacksize for task 88: unlimited
  | Maximum stacksize for task 89: unlimited
  | Maximum stacksize for task 90: unlimited
  | Maximum stacksize for task 91: unlimited
  | Maximum stacksize for task 92: unlimited
  | Maximum stacksize for task 93: unlimited
  | Maximum stacksize for task 94: unlimited
  | Maximum stacksize for task 95: unlimited
  | Maximum stacksize for task 96: unlimited
  | Maximum stacksize for task 97: unlimited
  | Maximum stacksize for task 98: unlimited
  | Maximum stacksize for task 99: unlimited
  | Maximum stacksize for task 100: unlimited
  | Maximum stacksize for task 101: unlimited
  | Maximum stacksize for task 102: unlimited
  | Maximum stacksize for task 103: unlimited
  | Maximum stacksize for task 104: unlimited
  | Maximum stacksize for task 105: unlimited
  | Maximum stacksize for task 106: unlimited
  | Maximum stacksize for task 107: unlimited
  | Maximum stacksize for task 108: unlimited
  | Maximum stacksize for task 109: unlimited
  | Maximum stacksize for task 110: unlimited
  | Maximum stacksize for task 111: unlimited
  | Maximum stacksize for task 112: unlimited
  | Maximum stacksize for task 113: unlimited
  | Maximum stacksize for task 114: unlimited
  | Maximum stacksize for task 115: unlimited
  | Maximum stacksize for task 116: unlimited
  | Maximum stacksize for task 117: unlimited
  | Maximum stacksize for task 118: unlimited
  | Maximum stacksize for task 119: unlimited
  | Maximum stacksize for task 120: unlimited
  | Maximum stacksize for task 121: unlimited
  | Maximum stacksize for task 122: unlimited
  | Maximum stacksize for task 123: unlimited
  | Maximum stacksize for task 124: unlimited
  | Maximum stacksize for task 125: unlimited
  | Maximum stacksize for task 126: unlimited
  | Maximum stacksize for task 127: unlimited
  | Maximum stacksize for task 128: unlimited
  | Maximum stacksize for task 129: unlimited
  | Maximum stacksize for task 130: unlimited
  | Maximum stacksize for task 131: unlimited
  | Maximum stacksize for task 132: unlimited
  | Maximum stacksize for task 133: unlimited
  | Maximum stacksize for task 134: unlimited
  | Maximum stacksize for task 135: unlimited
  | Maximum stacksize for task 136: unlimited
  | Maximum stacksize for task 137: unlimited
  | Maximum stacksize for task 138: unlimited
  | Maximum stacksize for task 139: unlimited
  | Maximum stacksize for task 140: unlimited
  | Maximum stacksize for task 141: unlimited
  | Maximum stacksize for task 142: unlimited
  | Maximum stacksize for task 143: unlimited
  | Maximum stacksize for task 144: unlimited
  | Maximum stacksize for task 145: unlimited
  | Maximum stacksize for task 146: unlimited
  | Maximum stacksize for task 147: unlimited
  | Maximum stacksize for task 148: unlimited
  | Maximum stacksize for task 149: unlimited
  | Maximum stacksize for task 150: unlimited
  | Maximum stacksize for task 151: unlimited
  | Maximum stacksize for task 152: unlimited
  | Maximum stacksize for task 153: unlimited
  | Maximum stacksize for task 154: unlimited
  | Maximum stacksize for task 155: unlimited
  | Maximum stacksize for task 156: unlimited
  | Maximum stacksize for task 157: unlimited
  | Maximum stacksize for task 158: unlimited
  | Maximum stacksize for task 159: unlimited
  | Maximum stacksize for task 160: unlimited
  | Maximum stacksize for task 161: unlimited
  | Maximum stacksize for task 162: unlimited
  | Maximum stacksize for task 163: unlimited
  | Maximum stacksize for task 164: unlimited
  | Maximum stacksize for task 165: unlimited
  | Maximum stacksize for task 166: unlimited
  | Maximum stacksize for task 167: unlimited
  | Maximum stacksize for task 168: unlimited
  | Maximum stacksize for task 169: unlimited
  | Maximum stacksize for task 170: unlimited
  | Maximum stacksize for task 171: unlimited
  | Maximum stacksize for task 172: unlimited
  | Maximum stacksize for task 173: unlimited
  | Maximum stacksize for task 174: unlimited
  | Maximum stacksize for task 175: unlimited
  | Maximum stacksize for task 176: unlimited
  | Maximum stacksize for task 177: unlimited
  | Maximum stacksize for task 178: unlimited
  | Maximum stacksize for task 179: unlimited
  | Maximum stacksize for task 180: unlimited
  | Maximum stacksize for task 181: unlimited
  | Maximum stacksize for task 182: unlimited
  | Maximum stacksize for task 183: unlimited
  | Maximum stacksize for task 184: unlimited
  | Maximum stacksize for task 185: unlimited
  | Maximum stacksize for task 186: unlimited
  | Maximum stacksize for task 187: unlimited
  | Maximum stacksize for task 188: unlimited
  | Maximum stacksize for task 189: unlimited
  | Maximum stacksize for task 190: unlimited
  | Maximum stacksize for task 191: unlimited
  | Maximum stacksize for task 192: unlimited
  | Maximum stacksize for task 193: unlimited
  | Maximum stacksize for task 194: unlimited
  | Maximum stacksize for task 195: unlimited
  | Maximum stacksize for task 196: unlimited
  | Maximum stacksize for task 197: unlimited
  | Maximum stacksize for task 198: unlimited
  | Maximum stacksize for task 199: unlimited
  | Current stacksize for task 0: unlimited
  | Current stacksize for task 1: unlimited
  | Current stacksize for task 2: unlimited
  | Current stacksize for task 3: unlimited
  | Current stacksize for task 4: unlimited
  | Current stacksize for task 5: unlimited
  | Current stacksize for task 6: unlimited
  | Current stacksize for task 7: unlimited
  | Current stacksize for task 8: unlimited
  | Current stacksize for task 9: unlimited
  | Current stacksize for task 10: unlimited
  | Current stacksize for task 11: unlimited
  | Current stacksize for task 12: unlimited
  | Current stacksize for task 13: unlimited
  | Current stacksize for task 14: unlimited
  | Current stacksize for task 15: unlimited
  | Current stacksize for task 16: unlimited
  | Current stacksize for task 17: unlimited
  | Current stacksize for task 18: unlimited
  | Current stacksize for task 19: unlimited
  | Current stacksize for task 20: unlimited
  | Current stacksize for task 21: unlimited
  | Current stacksize for task 22: unlimited
  | Current stacksize for task 23: unlimited
  | Current stacksize for task 24: unlimited
  | Current stacksize for task 25: unlimited
  | Current stacksize for task 26: unlimited
  | Current stacksize for task 27: unlimited
  | Current stacksize for task 28: unlimited
  | Current stacksize for task 29: unlimited
  | Current stacksize for task 30: unlimited
  | Current stacksize for task 31: unlimited
  | Current stacksize for task 32: unlimited
  | Current stacksize for task 33: unlimited
  | Current stacksize for task 34: unlimited
  | Current stacksize for task 35: unlimited
  | Current stacksize for task 36: unlimited
  | Current stacksize for task 37: unlimited
  | Current stacksize for task 38: unlimited
  | Current stacksize for task 39: unlimited
  | Current stacksize for task 40: unlimited
  | Current stacksize for task 41: unlimited
  | Current stacksize for task 42: unlimited
  | Current stacksize for task 43: unlimited
  | Current stacksize for task 44: unlimited
  | Current stacksize for task 45: unlimited
  | Current stacksize for task 46: unlimited
  | Current stacksize for task 47: unlimited
  | Current stacksize for task 48: unlimited
  | Current stacksize for task 49: unlimited
  | Current stacksize for task 50: unlimited
  | Current stacksize for task 51: unlimited
  | Current stacksize for task 52: unlimited
  | Current stacksize for task 53: unlimited
  | Current stacksize for task 54: unlimited
  | Current stacksize for task 55: unlimited
  | Current stacksize for task 56: unlimited
  | Current stacksize for task 57: unlimited
  | Current stacksize for task 58: unlimited
  | Current stacksize for task 59: unlimited
  | Current stacksize for task 60: unlimited
  | Current stacksize for task 61: unlimited
  | Current stacksize for task 62: unlimited
  | Current stacksize for task 63: unlimited
  | Current stacksize for task 64: unlimited
  | Current stacksize for task 65: unlimited
  | Current stacksize for task 66: unlimited
  | Current stacksize for task 67: unlimited
  | Current stacksize for task 68: unlimited
  | Current stacksize for task 69: unlimited
  | Current stacksize for task 70: unlimited
  | Current stacksize for task 71: unlimited
  | Current stacksize for task 72: unlimited
  | Current stacksize for task 73: unlimited
  | Current stacksize for task 74: unlimited
  | Current stacksize for task 75: unlimited
  | Current stacksize for task 76: unlimited
  | Current stacksize for task 77: unlimited
  | Current stacksize for task 78: unlimited
  | Current stacksize for task 79: unlimited
  | Current stacksize for task 80: unlimited
  | Current stacksize for task 81: unlimited
  | Current stacksize for task 82: unlimited
  | Current stacksize for task 83: unlimited
  | Current stacksize for task 84: unlimited
  | Current stacksize for task 85: unlimited
  | Current stacksize for task 86: unlimited
  | Current stacksize for task 87: unlimited
  | Current stacksize for task 88: unlimited
  | Current stacksize for task 89: unlimited
  | Current stacksize for task 90: unlimited
  | Current stacksize for task 91: unlimited
  | Current stacksize for task 92: unlimited
  | Current stacksize for task 93: unlimited
  | Current stacksize for task 94: unlimited
  | Current stacksize for task 95: unlimited
  | Current stacksize for task 96: unlimited
  | Current stacksize for task 97: unlimited
  | Current stacksize for task 98: unlimited
  | Current stacksize for task 99: unlimited
  | Current stacksize for task 100: unlimited
  | Current stacksize for task 101: unlimited
  | Current stacksize for task 102: unlimited
  | Current stacksize for task 103: unlimited
  | Current stacksize for task 104: unlimited
  | Current stacksize for task 105: unlimited
  | Current stacksize for task 106: unlimited
  | Current stacksize for task 107: unlimited
  | Current stacksize for task 108: unlimited
  | Current stacksize for task 109: unlimited
  | Current stacksize for task 110: unlimited
  | Current stacksize for task 111: unlimited
  | Current stacksize for task 112: unlimited
  | Current stacksize for task 113: unlimited
  | Current stacksize for task 114: unlimited
  | Current stacksize for task 115: unlimited
  | Current stacksize for task 116: unlimited
  | Current stacksize for task 117: unlimited
  | Current stacksize for task 118: unlimited
  | Current stacksize for task 119: unlimited
  | Current stacksize for task 120: unlimited
  | Current stacksize for task 121: unlimited
  | Current stacksize for task 122: unlimited
  | Current stacksize for task 123: unlimited
  | Current stacksize for task 124: unlimited
  | Current stacksize for task 125: unlimited
  | Current stacksize for task 126: unlimited
  | Current stacksize for task 127: unlimited
  | Current stacksize for task 128: unlimited
  | Current stacksize for task 129: unlimited
  | Current stacksize for task 130: unlimited
  | Current stacksize for task 131: unlimited
  | Current stacksize for task 132: unlimited
  | Current stacksize for task 133: unlimited
  | Current stacksize for task 134: unlimited
  | Current stacksize for task 135: unlimited
  | Current stacksize for task 136: unlimited
  | Current stacksize for task 137: unlimited
  | Current stacksize for task 138: unlimited
  | Current stacksize for task 139: unlimited
  | Current stacksize for task 140: unlimited
  | Current stacksize for task 141: unlimited
  | Current stacksize for task 142: unlimited
  | Current stacksize for task 143: unlimited
  | Current stacksize for task 144: unlimited
  | Current stacksize for task 145: unlimited
  | Current stacksize for task 146: unlimited
  | Current stacksize for task 147: unlimited
  | Current stacksize for task 148: unlimited
  | Current stacksize for task 149: unlimited
  | Current stacksize for task 150: unlimited
  | Current stacksize for task 151: unlimited
  | Current stacksize for task 152: unlimited
  | Current stacksize for task 153: unlimited
  | Current stacksize for task 154: unlimited
  | Current stacksize for task 155: unlimited
  | Current stacksize for task 156: unlimited
  | Current stacksize for task 157: unlimited
  | Current stacksize for task 158: unlimited
  | Current stacksize for task 159: unlimited
  | Current stacksize for task 160: unlimited
  | Current stacksize for task 161: unlimited
  | Current stacksize for task 162: unlimited
  | Current stacksize for task 163: unlimited
  | Current stacksize for task 164: unlimited
  | Current stacksize for task 165: unlimited
  | Current stacksize for task 166: unlimited
  | Current stacksize for task 167: unlimited
  | Current stacksize for task 168: unlimited
  | Current stacksize for task 169: unlimited
  | Current stacksize for task 170: unlimited
  | Current stacksize for task 171: unlimited
  | Current stacksize for task 172: unlimited
  | Current stacksize for task 173: unlimited
  | Current stacksize for task 174: unlimited
  | Current stacksize for task 175: unlimited
  | Current stacksize for task 176: unlimited
  | Current stacksize for task 177: unlimited
  | Current stacksize for task 178: unlimited
  | Current stacksize for task 179: unlimited
  | Current stacksize for task 180: unlimited
  | Current stacksize for task 181: unlimited
  | Current stacksize for task 182: unlimited
  | Current stacksize for task 183: unlimited
  | Current stacksize for task 184: unlimited
  | Current stacksize for task 185: unlimited
  | Current stacksize for task 186: unlimited
  | Current stacksize for task 187: unlimited
  | Current stacksize for task 188: unlimited
  | Current stacksize for task 189: unlimited
  | Current stacksize for task 190: unlimited
  | Current stacksize for task 191: unlimited
  | Current stacksize for task 192: unlimited
  | Current stacksize for task 193: unlimited
  | Current stacksize for task 194: unlimited
  | Current stacksize for task 195: unlimited
  | Current stacksize for task 196: unlimited
  | Current stacksize for task 197: unlimited
  | Current stacksize for task 198: unlimited
  | Current stacksize for task 199: unlimited
 
  Consistency checks for the contents of control.in are next.
 
  MPI_IN_PLACE appears to work with this MPI implementation.
  | Keeping use_mpi_in_place .true. (see manual).
  Explicit treatment of the Coulomb operator is needed, but the RI method is not specified.
  Coulomb operator: Defaulting to 'LVL fast' resolution of identity - RI_type = LVL_fast
  Species Mo: Using default value for prodbas_acc =   1.000000E-04.
  Species Mo: Using default value max_l_prodbas =    20.
  Species O: Using default value for prodbas_acc =   1.000000E-04.
  Species O: Using default value max_l_prodbas =    20.
  Target number of points in a grid batch is not set. Defaulting to  100
  Method for grid partitioning is not set. Defaulting to parallel hash+maxmin partitioning.
  Batch size limit is not set. Defaulting to    200
  By default, will store active basis functions for each batch.
  If in need of memory, prune_basis_once .false. can be used to disable this option.
  communication_type for Hartree potential was not specified.
  Defaulting to calc_hartree .
  Defaulting to Pulay charge density mixer.
  Pulay mixer: Number of relevant iterations not set.
  Defaulting to    8 iterations.
  Pulay mixer: Number of initial linear mixing iterations not set.
  Defaulting to    0 iterations.
  Work space size for distributed Hartree potential not set.
  Defaulting to   0.200000E+03 MB.
  Mixing parameter for charge density mixing has not been set.
  Using default: charge_mix_param =     0.0500.
  The mixing parameter will be adjusted in iteration number     2 of the first full s.c.f. cycle only.
  Algorithm-dependent basis array size parameters:
  | n_max_pulay                         :        8
  Maximum number of self-consistency iterations not provided.
  Presetting  1000 iterations.
  Presetting      1001 iterations before the initial mixing cycle
  is restarted anyway using the sc_init_iter criterion / keyword.
  Presetting a factor      1.000 between actual scf density residual
  and density convergence criterion sc_accuracy_rho below which sc_init_iter
  takes no effect.
  Geometry relaxation not requested: no relaxation will be performed.
  Forces evaluation will include force correction term due to incomplete self-consistency (default).
  Handling of forces: Unphysical translation and rotation will be removed from forces.
  No accuracy limit for integral partition fn. given. Defaulting to  0.1000E-14.
  No threshold value for u(r) in integrations given. Defaulting to  0.1000E-05.
  No accuracy for occupation numbers given. Defaulting to  0.1000E-12.
  No threshold value for occupation numbers given. Defaulting to  0.0000E+00.
  No accuracy for fermi level given. Defaulting to  0.1000E-19.
  Maximum # of iterations to find E_F not set. Defaulting to  200.
  Preferred method for the eigenvalue solver ('KS_method') not specified in 'control.in'.
  Defaulting to serial version, LAPACK (via ELSI), since more k-points than CPUs available.
  Will not use alltoall communication since running on < 1024 CPUs.
  Threshold for basis singularities not set.
  Default threshold for basis singularities:  0.1000E-04
  partition_type (choice of integration weights) for integrals was not specified.
  | Using a version of the partition function of Stratmann and coworkers ('stratmann_sparse').
  | At each grid point, the set of atoms used to build the partition table is smoothly restricted to
  | only those atoms whose free-atom density would be non-zero at that grid point.
  Partitioning for Hartree potential was not defined. Using partition_type for integrals.
  | Adjusted default value of keyword multip_moments_threshold to:       0.10000000E-11
  | This value may affect high angular momentum components of the Hartree potential in periodic systems.
  Threshold for auxiliary basis singularities not set.
  Default threshold for auxiliary basis singularities:  0.1000E-04
  No q(lm)/r^(l+1) cutoff set for long-range Hartree potential.
  | Using default value of  0.100000E-09 .
  | Verify using the multipole_threshold keyword.
  Defaulting to new monopole extrapolation.
  Density update method: automatic selection selected.
  Using density matrix based charge density update.
 * Warning: DFT+U requires using density matrix based charge density update.
  Using density matrix based charge density update.
  Using packed matrix style: index .
 * NOTE: You are attempting to run a periodic structure with an exchange treatment
 * which requires a two-electron Coulomb operator (Hartree-Fock or a hybrid functional).
 * The present implementation is reliable to our knowledge, but some things
 * (like band structure output, or perhaps the auxilary basis set for small
 * orbital basis sets - see the "for_aux" keyword) require extra care.
 * Please let us know if you encounter any trouble.
  Coulomb operator: Defaulting to screening threshold for four-center integrals:   0.100000E-06
  Coulomb operator: Defaulting to screening threshold for Coulomb matrix:   0.100000E-09
  Fock matrix calculation: Setting the screening threshold for overlap matrix to coul_mat_threshold:   0.100000E-09
  Coulomb operator: Defaulting to 'LVL_fast' resolution of identity - RI_type = LVL_fast 
  No other resolution of identity version is supported for periodic boundary conditions at present.
  Coulomb operator: Defaulting to logarithmic spherical Bessel transform integrals (use_logsbt .true.).
  Defaulting to use time-reversal symmetry for k-point grid.
  Charge integration errors on the 3D integration grid will be compensated
  by explicit normalization and distribution of residual charges.
  Use the "compensate_multipole_errors" flag to change this behaviour.
  LVL not implemented with density matrix yet
  -> switching to transformed overlap
  LVL probably works better with logsbt
  Default to 1D ("use_logsbt") integrations for auxiliary 2-center integrals.
  Default onset of logarithmic r-grid for SBT is -38.000000000000
  Default onset of logarithmic k-grid for SBT is -25.000000000000
  Default range of logarithmic r- and k-grid for SBT is  45.000000000000
  Default number of logarithmic r- and k-grid for SBT is   4096
  Set 'collect_eigenvectors' to be '.true.' for all serial calculations. This is mandatory.
  Set 'collect_eigenvectors' to be '.true.' for KS_method lapack_fast and serial.
 
  Consistency checks for the contents of geometry.in are next.
 

  Range separation radius for Ewald summation (hartree_convergence_parameter):      3.27269809 bohr.
  Number of empty states per atom not set in control.in - providing a guess from actual geometry.
  | Total number of empty states used during s.c.f. cycle:       58
  If you use a very high smearing, use empty_states (per atom!) in control.in to increase this value.

  Structure-dependent array size parameters: 
  | Maximum number of distinct radial functions  :       20
  | Maximum number of basis functions            :      328
  | Number of Kohn-Sham states (occupied + empty):      190
------------------------------------------------------------
  Setting Coulomb cut-width to  1.091868692359 * rcut.
  Setting Coulomb cutting radius rcut to 27.710000000000 A.
  After read_input_data [GB]:    357.29

  Performing system and environment tests:
  *** Environment variable OMP_NUM_THREADS is not set
  *** For performance reasons you might want to set it to 1
  | Checking for ScaLAPACK...
  | Testing pdtran()...
  | All pdtran() tests passed.
  After prepare_system [GB]:    357.29

------------------------------------------------------------
          Preparing all fixed parts of the calculation.
------------------------------------------------------------
  Determining machine precision:
    2.225073858507201E-308
  Setting up grids for atomic and cluster calculations.

  Creating wave function, potential, and density for free atoms.
  Runtime choices for atomic solver:
  | atomic solver xc        : PBE
  | compute density gradient: 1
  | compute kinetic density : F

  Species: Mo

  List of occupied orbitals and eigenvalues:
    n    l              occ      energy [Ha]    energy [eV]
    1    0           2.0000      -745.333848    -20281.5659
    2    0           2.0000      -103.277699     -2810.3292
    3    0           2.0000       -17.506203      -476.3680
    4    0           2.0000        -2.348313       -63.9008
    5    0           1.0000        -0.135274        -3.6810
    2    1           6.0000       -92.298078     -2511.5585
    3    1           6.0000       -13.925523      -378.9328
    4    1           6.0000        -1.398018       -38.0420
    3    2          10.0000        -8.108532      -220.6444
    4    2           5.0000        -0.123864        -3.3705


  Species: O

  List of occupied orbitals and eigenvalues:
    n    l              occ      energy [Ha]    energy [eV]
    1    0           2.0000       -18.926989      -515.0296
    2    0           2.0000        -0.880247       -23.9527
    2    1           4.0000        -0.331514        -9.0210


  Adding cutoff potential to free-atom effective potential.
  Creating fixed part of basis set: Ionic, confined, hydrogenic.
 
  Mo                   ion:

  List of free ionic orbitals and eigenvalues:
    n    l      energy [Ha]    energy [eV]
    1    0      -746.048685    -20301.0176
    2    0      -103.980912     -2829.4646
    3    0       -18.206601      -495.4268
    4    0        -3.040545       -82.7374
    2    1       -93.001013     -2530.6863
    3    1       -14.625827      -397.9890
    4    1        -2.084855       -56.7318
    3    2        -8.808854      -239.7011
    4    2        -0.765435       -20.8285


  List of ionic basis orbitals and eigenvalues:
    n    l      energy [Ha]    energy [eV]    outer radius [A]
    5    1        -0.462835       -12.5944       4.598077
    5    0        -0.649837       -17.6830       4.542208

 
  Mo                   hydrogenic:
 
  List of hydrogenic basis orbitals: 
    n    l      effective z      eigenvalue [eV]  inner max. [A]     outer max. [A]     outer radius [A]   
    4    3         8.400000       -60.0006           1.009788           1.009788           4.119012
    3    2         2.800000       -11.6571           1.666898           1.666898           4.598077
 
 
  O                    hydrogenic:
 
  List of hydrogenic basis orbitals: 
    n    l      effective z      eigenvalue [eV]  inner max. [A]     outer max. [A]     outer radius [A]   
    2    1         1.800000       -10.9749           1.164242           1.164242           4.578029
    3    2         7.600000       -87.3180           0.624125           0.624125           3.251020
    3    0         6.400000       -61.9207           0.061167           1.081902           4.001998
 
  Creating atomic-like basis functions for current effective potential.

  Species Mo                  :

  List of atomic basis orbitals and eigenvalues:
    n    l      energy [Ha]    energy [eV]    outer radius [A]
    1    0      -745.333848    -20281.5659       0.247552
    2    0      -103.277699     -2810.3292       0.682864
    3    0       -17.506203      -476.3680       1.626637
    4    0        -2.348313       -63.9008       4.019524
    5    0        -0.135274        -3.6810       4.598077
    2    1       -92.298078     -2511.5585       0.699766
    3    1       -13.925523      -378.9328       1.793761
    4    1        -1.398018       -38.0420       4.272881
    3    2        -8.108532      -220.6444       2.181285
    4    2        -0.123864        -3.3705       4.542208


  Species O                   :

  List of atomic basis orbitals and eigenvalues:
    n    l      energy [Ha]    energy [eV]    outer radius [A]
    1    0       -18.926989      -515.0296       1.415765
    2    0        -0.880247       -23.9527       4.413171
    2    1        -0.331514        -9.0210       4.522403

  Assembling full basis from fixed parts.
 * Warning - Since '+U' treatment was requested,
 * the basis-dependent cutoff is turned off automatically.
  | Species Mo :   atomic orbital   1 s accepted.
  | Species Mo :   atomic orbital   2 s accepted.
  | Species Mo :   atomic orbital   3 s accepted.
  | Species Mo :   atomic orbital   4 s accepted.
  | Species Mo :   atomic orbital   5 s accepted.
  | Species Mo :    ionic orbital   5 s accepted.
  | Species Mo :   atomic orbital   2 p accepted.
  | Species Mo :   atomic orbital   3 p accepted.
  | Species Mo :   atomic orbital   4 p accepted.
  | Species Mo :    ionic orbital   5 p accepted.
  | Species Mo :   atomic orbital   3 d accepted.
  | Species Mo :   atomic orbital   4 d accepted.
  | Species Mo :    hydro orbital   3 d accepted.
  | Species Mo :    hydro orbital   4 f accepted.
 * Warning - Since '+U' treatment was requested,
 * the basis-dependent cutoff is turned off automatically.
  | Species O :   atomic orbital   1 s accepted.
  | Species O :   atomic orbital   2 s accepted.
  | Species O :    hydro orbital   3 s accepted.
  | Species O :   atomic orbital   2 p accepted.
  | Species O :    hydro orbital   2 p accepted.
  | Species O :    hydro orbital   3 d accepted.
 
  Basis size parameters after reduction:
  | Total number of radial functions:       20
  | Total number of basis functions :      328
 
  Per-task memory consumption for arrays in subroutine allocate_ext:
  |           7.361568MB.
  Testing on-site integration grid accuracy.
  |  Species  Function  <phi|h_atom|phi> (log., in eV)  <phi|h_atom|phi> (rad., in eV)
           1        1             -20281.5659320674             -20281.5323559147 ***
           1        2              -2810.3291693068              -2810.3286854703
           1        3               -476.3680236302               -476.3680079684
           1        4                -63.9008496011                -63.9008488153
           1        5                 -3.7071438771                 -3.7329941122
           1        6                  7.1701856612                  6.9763211435 ***
           1        7              -2511.5584946714              -2511.5584926613
           1        8               -378.9327641188               -378.9327633055
           1        9                -38.0420009841                -38.0420006865
           1       10                  0.5956589048                  0.5771251364
           1       11               -220.6443822950               -220.6443820003
           1       12                 -3.3734068167                 -3.3762615058
           1       13                  8.2366836575                  8.1872404255 ***
           1       14                 23.6292330546                 23.6292104921
           2       15               -515.0295626295               -515.0294562738
           2       16                -23.9527496044                -23.9527504259
           2       17                 17.5187107785                 17.5187708358
           2       18                 -9.0211123393                 -9.0212703513
           2       19                  8.3047696391                  8.2854840999
           2       20                 45.8428042125                 45.8427461222
 * Note: Onsite integrals marked "***" above are less accurate than
 * onsite_accuracy_threshold =    0.03000 eV. Usually, this is harmless.
 * However, one integral did have a negative value. This integral could be important.
 * When in doubt, tighten the "radial" and/or "radial_multiplier" flags to check.

  Preparing densities etc. for the partition functions (integrals / Hartree potential).

  Preparations completed.
  max(cpu_time)          :      0.686 s.
  Wall clock time (cpu1) :      0.685 s.
------------------------------------------------------------
  After prepare_scf [GB]:    356.38

  Initializing index lists of integration centers etc. from given atomic structure:
  Mapping all atomic coordinates to central unit cell.

  Initializing the k-points
  Using symmetry for reducing the k-points
  | k-points reduced from:      840 to      422
  | Number of k-points                             :       422
  | Consuming       5538 KiB for k_phase_exx.
  The eigenvectors in the calculations are COMPLEX.
  | K-points in task   0:         2
  | K-points in task   1:         3
  | K-points in task   2:         3
  | K-points in task   3:         3
  | K-points in task   4:         3
  | K-points in task   5:         3
  | K-points in task   6:         3
  | K-points in task   7:         3
  | K-points in task   8:         3
  | K-points in task   9:         3
  | K-points in task  10:         3
  | K-points in task  11:         3
  | K-points in task  12:         3
  | K-points in task  13:         3
  | K-points in task  14:         3
  | K-points in task  15:         3
  | K-points in task  16:         3
  | K-points in task  17:         3
  | K-points in task  18:         3
  | K-points in task  19:         3
  | K-points in task  20:         3
  | K-points in task  21:         3
  | K-points in task  22:         3
  | K-points in task  23:         2
  | K-points in task  24:         2
  | K-points in task  25:         2
  | K-points in task  26:         2
  | K-points in task  27:         2
  | K-points in task  28:         2
  | K-points in task  29:         2
  | K-points in task  30:         2
  | K-points in task  31:         2
  | K-points in task  32:         2
  | K-points in task  33:         2
  | K-points in task  34:         2
  | K-points in task  35:         2
  | K-points in task  36:         2
  | K-points in task  37:         2
  | K-points in task  38:         2
  | K-points in task  39:         2
  | K-points in task  40:         2
  | K-points in task  41:         2
  | K-points in task  42:         2
  | K-points in task  43:         2
  | K-points in task  44:         2
  | K-points in task  45:         2
  | K-points in task  46:         2
  | K-points in task  47:         2
  | K-points in task  48:         2
  | K-points in task  49:         2
  | K-points in task  50:         2
  | K-points in task  51:         2
  | K-points in task  52:         2
  | K-points in task  53:         2
  | K-points in task  54:         2
  | K-points in task  55:         2
  | K-points in task  56:         2
  | K-points in task  57:         2
  | K-points in task  58:         2
  | K-points in task  59:         2
  | K-points in task  60:         2
  | K-points in task  61:         2
  | K-points in task  62:         2
  | K-points in task  63:         2
  | K-points in task  64:         2
  | K-points in task  65:         2
  | K-points in task  66:         2
  | K-points in task  67:         2
  | K-points in task  68:         2
  | K-points in task  69:         2
  | K-points in task  70:         2
  | K-points in task  71:         2
  | K-points in task  72:         2
  | K-points in task  73:         2
  | K-points in task  74:         2
  | K-points in task  75:         2
  | K-points in task  76:         2
  | K-points in task  77:         2
  | K-points in task  78:         2
  | K-points in task  79:         2
  | K-points in task  80:         2
  | K-points in task  81:         2
  | K-points in task  82:         2
  | K-points in task  83:         2
  | K-points in task  84:         2
  | K-points in task  85:         2
  | K-points in task  86:         2
  | K-points in task  87:         2
  | K-points in task  88:         2
  | K-points in task  89:         2
  | K-points in task  90:         2
  | K-points in task  91:         2
  | K-points in task  92:         2
  | K-points in task  93:         2
  | K-points in task  94:         2
  | K-points in task  95:         2
  | K-points in task  96:         2
  | K-points in task  97:         2
  | K-points in task  98:         2
  | K-points in task  99:         2
  | K-points in task 100:         2
  | K-points in task 101:         2
  | K-points in task 102:         2
  | K-points in task 103:         2
  | K-points in task 104:         2
  | K-points in task 105:         2
  | K-points in task 106:         2
  | K-points in task 107:         2
  | K-points in task 108:         2
  | K-points in task 109:         2
  | K-points in task 110:         2
  | K-points in task 111:         2
  | K-points in task 112:         2
  | K-points in task 113:         2
  | K-points in task 114:         2
  | K-points in task 115:         2
  | K-points in task 116:         2
  | K-points in task 117:         2
  | K-points in task 118:         2
  | K-points in task 119:         2
  | K-points in task 120:         2
  | K-points in task 121:         2
  | K-points in task 122:         2
  | K-points in task 123:         2
  | K-points in task 124:         2
  | K-points in task 125:         2
  | K-points in task 126:         2
  | K-points in task 127:         2
  | K-points in task 128:         2
  | K-points in task 129:         2
  | K-points in task 130:         2
  | K-points in task 131:         2
  | K-points in task 132:         2
  | K-points in task 133:         2
  | K-points in task 134:         2
  | K-points in task 135:         2
  | K-points in task 136:         2
  | K-points in task 137:         2
  | K-points in task 138:         2
  | K-points in task 139:         2
  | K-points in task 140:         2
  | K-points in task 141:         2
  | K-points in task 142:         2
  | K-points in task 143:         2
  | K-points in task 144:         2
  | K-points in task 145:         2
  | K-points in task 146:         2
  | K-points in task 147:         2
  | K-points in task 148:         2
  | K-points in task 149:         2
  | K-points in task 150:         2
  | K-points in task 151:         2
  | K-points in task 152:         2
  | K-points in task 153:         2
  | K-points in task 154:         2
  | K-points in task 155:         2
  | K-points in task 156:         2
  | K-points in task 157:         2
  | K-points in task 158:         2
  | K-points in task 159:         2
  | K-points in task 160:         2
  | K-points in task 161:         2
  | K-points in task 162:         2
  | K-points in task 163:         2
  | K-points in task 164:         2
  | K-points in task 165:         2
  | K-points in task 166:         2
  | K-points in task 167:         2
  | K-points in task 168:         2
  | K-points in task 169:         2
  | K-points in task 170:         2
  | K-points in task 171:         2
  | K-points in task 172:         2
  | K-points in task 173:         2
  | K-points in task 174:         2
  | K-points in task 175:         2
  | K-points in task 176:         2
  | K-points in task 177:         2
  | K-points in task 178:         2
  | K-points in task 179:         2
  | K-points in task 180:         2
  | K-points in task 181:         2
  | K-points in task 182:         2
  | K-points in task 183:         2
  | K-points in task 184:         2
  | K-points in task 185:         2
  | K-points in task 186:         2
  | K-points in task 187:         2
  | K-points in task 188:         2
  | K-points in task 189:         2
  | K-points in task 190:         2
  | K-points in task 191:         2
  | K-points in task 192:         2
  | K-points in task 193:         2
  | K-points in task 194:         2
  | K-points in task 195:         2
  | K-points in task 196:         2
  | K-points in task 197:         2
  | K-points in task 198:         2
  | K-points in task 199:         2
  | Number of basis functions in the Hamiltonian integrals :      4310
  | Number of basis functions in a single unit cell        :       328
  | Number of centers in hartree potential         :      1518
  | Number of centers in hartree multipole         :       952
  | Number of centers in electron density summation:       686
  | Number of centers in basis integrals           :       742
  | Number of centers in integrals                 :       316
  | Number of centers in hamiltonian               :       690
  | Consuming        580 KiB for k_phase.
  | Number of super-cells (origin) [n_cells]                     :         495
  | Number of super-cells (after PM_index) [n_cells]             :          88
  | Number of super-cells in hamiltonian [n_cells_in_hamiltonian]:          88
  | Size of matrix packed + index [n_hamiltonian_matrix_size] :      555465
  After initialize_bc_dependent_lists [GB]:    355.85

------------------------------------------------------------
          Begin self-consistency loop: Initialization.

          Date     :  20240522, Time     :  174735.862
------------------------------------------------------------
  Available memory per node after initialize_hartree_non_periodic_ewald [GB]:    355.85
  | Estimated reciprocal-space cutoff momentum G_max:         2.87603147 bohr^-1 .
  | Reciprocal lattice points for long-range Hartree potential:     558
  Available memory per node after initialize_recip_hartree_potential [GB]:    355.85
  Available memory per node after initialize_scalapack [GB]:    355.85
  Available memory per node after aims_elsi_init_scf [GB]:    355.85
  Available memory per node after initialize_fixed_grids [GB]:    355.85
  Partitioning the integration grid into batches with parallel hashing+maxmin method.
  | Number of batches:     1413
  | Maximal batch size:     120
  | Minimal batch size:      52
  | Average batch size:      76.631
  | Standard deviation of batch sizes:      14.954

  Integration load balanced across   200 MPI tasks.
  Work distribution over tasks is as follows:
  Task     0 has        542 integration points.
  Task     1 has        514 integration points.
  Task     2 has        544 integration points.
  Task     3 has        577 integration points.
  Task     4 has        569 integration points.
  Task     5 has        535 integration points.
  Task     6 has        571 integration points.
  Task     7 has        559 integration points.
  Task     8 has        560 integration points.
  Task     9 has        494 integration points.
  Task    10 has        510 integration points.
  Task    11 has        512 integration points.
  Task    12 has        554 integration points.
  Task    13 has        573 integration points.
  Task    14 has        559 integration points.
  Task    15 has        537 integration points.
  Task    16 has        562 integration points.
  Task    17 has        541 integration points.
  Task    18 has        536 integration points.
  Task    19 has        546 integration points.
  Task    20 has        563 integration points.
  Task    21 has        508 integration points.
  Task    22 has        552 integration points.
  Task    23 has        534 integration points.
  Task    24 has        539 integration points.
  Task    25 has        527 integration points.
  Task    26 has        534 integration points.
  Task    27 has        594 integration points.
  Task    28 has        543 integration points.
  Task    29 has        553 integration points.
  Task    30 has        526 integration points.
  Task    31 has        504 integration points.
  Task    32 has        556 integration points.
  Task    33 has        568 integration points.
  Task    34 has        508 integration points.
  Task    35 has        571 integration points.
  Task    36 has        582 integration points.
  Task    37 has        562 integration points.
  Task    38 has        541 integration points.
  Task    39 has        543 integration points.
  Task    40 has        536 integration points.
  Task    41 has        537 integration points.
  Task    42 has        570 integration points.
  Task    43 has        531 integration points.
  Task    44 has        576 integration points.
  Task    45 has        572 integration points.
  Task    46 has        538 integration points.
  Task    47 has        503 integration points.
  Task    48 has        536 integration points.
  Task    49 has        560 integration points.
  Task    50 has        578 integration points.
  Task    51 has        494 integration points.
  Task    52 has        537 integration points.
  Task    53 has        542 integration points.
  Task    54 has        511 integration points.
  Task    55 has        592 integration points.
  Task    56 has        529 integration points.
  Task    57 has        531 integration points.
  Task    58 has        538 integration points.
  Task    59 has        556 integration points.
  Task    60 has        557 integration points.
  Task    61 has        542 integration points.
  Task    62 has        529 integration points.
  Task    63 has        554 integration points.
  Task    64 has        581 integration points.
  Task    65 has        536 integration points.
  Task    66 has        567 integration points.
  Task    67 has        535 integration points.
  Task    68 has        570 integration points.
  Task    69 has        503 integration points.
  Task    70 has        556 integration points.
  Task    71 has        496 integration points.
  Task    72 has        506 integration points.
  Task    73 has        531 integration points.
  Task    74 has        506 integration points.
  Task    75 has        499 integration points.
  Task    76 has        588 integration points.
  Task    77 has        591 integration points.
  Task    78 has        564 integration points.
  Task    79 has        555 integration points.
  Task    80 has        534 integration points.
  Task    81 has        538 integration points.
  Task    82 has        513 integration points.
  Task    83 has        501 integration points.
  Task    84 has        540 integration points.
  Task    85 has        559 integration points.
  Task    86 has        506 integration points.
  Task    87 has        554 integration points.
  Task    88 has        583 integration points.
  Task    89 has        494 integration points.
  Task    90 has        508 integration points.
  Task    91 has        577 integration points.
  Task    92 has        540 integration points.
  Task    93 has        541 integration points.
  Task    94 has        510 integration points.
  Task    95 has        532 integration points.
  Task    96 has        494 integration points.
  Task    97 has        509 integration points.
  Task    98 has        561 integration points.
  Task    99 has        545 integration points.
  Task   100 has        542 integration points.
  Task   101 has        535 integration points.
  Task   102 has        501 integration points.
[...]
    111       2.00000          -0.441896          -12.02460
    112       2.00000          -0.440576          -11.98869
    113       2.00000          -0.436563          -11.87949
    114       2.00000          -0.436030          -11.86497
    115       2.00000          -0.434617          -11.82652
    116       2.00000          -0.434212          -11.81551
    117       2.00000          -0.431591          -11.74419
    118       2.00000          -0.431216          -11.73399
    119       2.00000          -0.428407          -11.65756
    120       2.00000          -0.426408          -11.60315
    121       2.00000          -0.422397          -11.49401
    122       2.00000          -0.413337          -11.24747
    123       2.00000          -0.411774          -11.20495
    124       2.00000          -0.408467          -11.11496
    125       2.00000          -0.404535          -11.00796
    126       2.00000          -0.403528          -10.98056
    127       2.00000          -0.395115          -10.75162
    128       2.00000          -0.387727          -10.55059
    129       2.00000          -0.384910          -10.47394
    130       2.00000          -0.384437          -10.46105
    131       2.00000          -0.380672          -10.35860
    132       2.00000          -0.379657          -10.33100
    133       0.00000          -0.182424           -4.96400
    134       0.00000          -0.180622           -4.91498
    135       0.00000          -0.179478           -4.88384
    136       0.00000          -0.178070           -4.84553
    137       0.00000          -0.126012           -3.42896
    138       0.00000          -0.119424           -3.24970
    139       0.00000          -0.114886           -3.12621
    140       0.00000          -0.106358           -2.89416
    141       0.00000          -0.085140           -2.31678
    142       0.00000          -0.081724           -2.22381
    143       0.00000          -0.074426           -2.02524
    144       0.00000          -0.072271           -1.96660
    145       0.00000          -0.069892           -1.90187
    146       0.00000          -0.067097           -1.82580
    147       0.00000          -0.061741           -1.68006
    148       0.00000          -0.059154           -1.60966
    149       0.00000          -0.028148           -0.76596
    150       0.00000          -0.004144           -0.11277
    151       0.00000           0.007457            0.20292
    152       0.00000           0.021795            0.59307
    153       0.00000           0.040815            1.11064
    154       0.00000           0.075672            2.05915
    155       0.00000           0.087418            2.37876
    156       0.00000           0.164788            4.48410
    157       0.00000           0.191403            5.20833
    158       0.00000           0.254947            6.93747
    159       0.00000           0.264429            7.19549
    160       0.00000           0.302350            8.22735
    161       0.00000           0.312609            8.50651
    162       0.00000           0.320746            8.72793
    163       0.00000           0.337336            9.17937
    164       0.00000           0.346157            9.41940
    165       0.00000           0.391165           10.64413
    166       0.00000           0.412197           11.21645
    167       0.00000           0.423987           11.53727
    168       0.00000           0.440675           11.99138
    169       0.00000           0.443315           12.06322
    170       0.00000           0.444658           12.09977
    171       0.00000           0.445321           12.11780
    172       0.00000           0.446966           12.16256
    173       0.00000           0.465180           12.65820
    174       0.00000           0.483432           13.15484
    175       0.00000           0.484467           13.18302
    176       0.00000           0.487811           13.27401
    177       0.00000           0.488740           13.29930
    178       0.00000           0.498169           13.55588
    179       0.00000           0.517338           14.07749
    180       0.00000           0.531568           14.46471
    181       0.00000           0.578040           15.72926
    182       0.00000           0.585639           15.93605
    183       0.00000           0.610053           16.60038
    184       0.00000           0.643240           17.50346
    185       0.00000           0.674006           18.34065
    186       0.00000           0.700301           19.05616
    187       0.00000           0.704936           19.18229
    188       0.00000           0.707836           19.26121
    189       0.00000           0.722064           19.64837
    190       0.00000           0.726860           19.77887

  What follows are estimated values for band gap, HOMO, LUMO, etc.
  | They are estimated on a discrete k-point grid and not necessarily exact.
  | For converged numbers, create a DOS and/or band structure plot on a denser k-grid.

  Highest occupied state (VBM) at     -9.39734116 eV (relative to internal zero)
  | Occupation number:      2.00000000
  | K-point:     307 at    0.500000    0.000000    0.466667 (in units of recip. lattice)

  Lowest unoccupied state (CBM) at    -4.96400412 eV (relative to internal zero)
  | Occupation number:      0.00000008
  | K-point:       1 at    0.000000    0.000000    0.000000 (in units of recip. lattice)

  ESTIMATED overall HOMO-LUMO gap:      4.43333704 eV between HOMO at k-point 307 and LUMO at k-point 1
  | This appears to be an indirect band gap.
  | Smallest direct gap :      5.36699927 eV for k_point 1 at    0.000000    0.000000    0.000000 (in units of recip. lattice)
  The gap value is above 0.2 eV. Unless you are using a very sparse k-point grid,
  this system is most likely an insulator or a semiconductor.

  | Chemical Potential                          :    -5.34306973 eV
  | Note that, for insulating systems, the printed 'chemical potential' value is not uniquely defined.
  | It can be anywhere in the energy gap, as long as it correctly separates occupied and unoccupied states.
  | In systems with a gap, the physically relevant chemical potential is the VBM or HOMO.

  Self-consistency cycle converged.


------------------------------------------------------------
  End self-consistency iteration #    51       :  max(cpu_time)    wall_clock(cpu1)
  | Time for this iteration                     :       46.046 s          46.176 s
  | Charge density & force component update     :        0.665 s           0.667 s
  | Density mixing                              :        0.009 s           0.003 s
  | Hartree multipole update                    :        0.002 s           0.002 s
  | Hartree multipole summation                 :        0.105 s           0.106 s
  | Hartree pot. SCF incomplete forces          :        0.106 s           0.106 s
  | Integration                                 :        0.091 s           0.091 s
  | Fock matrix evaluation                      :       44.828 s          44.930 s
  | Solution of K.-S. eqns.                     :        0.229 s           0.230 s
  | Total energy evaluation                     :        0.007 s           0.005 s

  Partial memory accounting:
  | Current value for overall tracked memory usage:
  |   Minimum:      101.042 MB (on task  71)
  |   Maximum:      153.979 MB (on task  13)
  |   Average:      123.099 MB
  | Peak value for overall tracked memory usage:
  |   Minimum:      184.560 MB (on task 149 after allocating tmpx2)
  |   Maximum:      572.207 MB (on task   7 after allocating tmp2_aux_mem)
  |   Average:      419.663 MB
  | Largest tracked array allocation so far:
  |   Minimum:       36.439 MB (d_aux_mat on task  72)
  |   Maximum:      296.990 MB (tmp2_aux_mem on task   7)
  |   Average:      196.656 MB
  Note:  These values currently only include a subset of arrays which are explicitly tracked.
  The "true" memory usage will be greater.
------------------------------------------------------------
  Removing unitary transformations (pure translations, rotations) from forces on atoms.
  Atomic forces before filtering:
  | Net force on center of mass :   0.366001E-05  0.624999E-06  0.284230E-06 eV/A
  Atomic forces after filtering:
  | Net force on center of mass :   0.696899E-18  0.696899E-18  0.957045E-22 eV/A

  Energy and forces in a compact form:
  | Total energy uncorrected      :         -0.469534954328571E+06 eV
  | Total energy corrected        :         -0.469534954328572E+06 eV  <-- do not rely on this value for anything but (periodic) metals
  | Electronic free energy        :         -0.469534954328572E+06 eV
  Total atomic forces (unitary forces cleaned) [eV/Ang]:
  |    1         -0.102917301913313E-03          0.107564746311663E-02         -0.666586239740226E-08
  |    2         -0.403686488604567E-03          0.679978340576839E-02         -0.535374743597735E-07
  |    3         -0.399484478162030E-03         -0.672479867987747E-02          0.101084268659296E-06
  |    4         -0.100752148521995E-03         -0.111299316662101E-02         -0.363375218053411E-07
  |    5         -0.272184160092418E-02          0.333655831103260E-02         -0.172120175606283E-06
  |    6          0.265610324803013E-02          0.396580948987816E-02         -0.283815882707172E-06
  |    7          0.265444524669447E-02         -0.397102298785139E-02          0.234647472096101E-06
  |    8         -0.272244608242837E-02         -0.333097789383612E-02          0.227283636882640E-06
  |    9         -0.146581164326800E-03         -0.925893505560297E-04         -0.505692435454114E-07
  |   10          0.219336662819965E-03         -0.491685845444494E-03         -0.654774553628658E-07
  |   11          0.220495322858337E-03          0.488051857378075E-03          0.262835558237080E-07
  |   12         -0.146734449400026E-03          0.960455463134638E-04          0.914142480415964E-07
  |   13         -0.365801776549714E-02         -0.419406592811530E-03         -0.550838635030797E-08
  |   14          0.416038333662593E-02         -0.509081954728866E-02         -0.222207575685276E-07
  |   15          0.415295186551623E-02          0.502147073086537E-02         -0.751093681267394E-08
  |   16         -0.366125420276666E-02          0.450927259934035E-03          0.230505150124171E-07

  ------------------------------------ 
  Start decomposition of the XC Energy 
  ------------------------------------ 
  X and C from original XC functional choice 
  Hartree-Fock Energy :       -146.865755290 Ha          -3996.420537066 eV
  X Energy            :       -587.098140098 Ha         -15975.753229454 eV
  C Energy            :        -12.025929176 Ha           -327.242182766 eV
  XC Energy w/o HF    :       -452.258313985 Ha         -12306.574875154 eV
  Total XC Energy     :       -599.124069274 Ha         -16302.995412220 eV
  ------------------------------------ 
  LDA X and C from self-consistent density 
  X Energy LDA        :       -554.282684411 Ha         -15082.799247196 eV
  C Energy LDA        :        -22.392137306 Ha           -609.321058015 eV
  ------------------------------------ 
  End decomposition of the XC Energy 
  ------------------------------------ 

------------------------------------------------------------

------------------------------------------------------------------------------
  Final output of selected total energy values:

  The following output summarizes some interesting total energy values
  at the end of a run (AFTER all relaxation, molecular dynamics, etc.).

  | Total energy of the DFT / Hartree-Fock s.c.f. calculation      :        -469534.954328571 eV
  | Final zero-broadening corrected energy (caution - metals only) :        -469534.954328572 eV
  | For reference only, the value of 1 Hartree used in FHI-aims is :             27.211384500 eV
  | For reference only, the overall average (free atom contribution
  | + realspace contribution) of the electrostatic potential after
  | s.c.f. convergence is                                          :            -14.521593913 eV

  Before relying on these values, please be sure to understand exactly which
  total energy value is referred to by a given number. Different objects may
  all carry the same name 'total energy'. Definitions:

  Total energy of the DFT / Hartree-Fock s.c.f. calculation:
  | Note that this energy does not include ANY quantities calculated after the
  | s.c.f. cycle, in particular not ANY RPA, MP2, etc. many-body perturbation terms.

  Final zero-broadening corrected energy:
  | For metallic systems only, a broadening of the occupation numbers at the Fermi
  | level can be extrapolated back to zero broadening by an electron-gas inspired
  | formula. For all systems that are not real metals, this value can be
  | meaningless and should be avoided.

------------------------------------------------------------------------------
  Methods described in the following list of references were used in this FHI-aims run.
  If you publish the results, please make sure to cite these reference if they apply.
  FHI-aims is an academic code, and for our developers (often, Ph.D. students
  and postdocs), scientific credit in the community is essential.
  Thank you for helping us!

  For any use of FHI-aims, please cite:

    Volker Blum, Ralf Gehrke, Felix Hanke, Paula Havu, Ville Havu,
    Xinguo Ren, Karsten Reuter, and Matthias Scheffler
    'Ab initio molecular simulations with numeric atom-centered orbitals'
    Computer Physics Communications 180, 2175-2196 (2009)
    http://doi.org/10.1016/j.cpc.2009.06.022


  For Hartree-Fock, hybrid functionals, or many-body perturbation theory used in your run, please cite:

    Xinguo Ren, Patrick Rinke, Volker Blum, Juergen Wieferink, Alex Tkatchenko,
    Andrea Sanfilippo, Karsten Reuter, and Matthias Scheffler,
    'Resolution-of-identity approach to Hartree-Fock, hybrid density functionals,
    RPA, MP2, and GW with numeric atom-centered orbital basis functions'
    New Journal of Physics 14, 053020 (2012).
    http://doi.org/10.1088/1367-2630/14/5/053020


  The provided symmetry information was generated with SPGlib:

    Atsushi Togo, Yusuke Seto, Dimitar Pashov
    SPGlib 1.7.3 obtained from http://spglib.sourceforge.net
    Copyright (C) 2008 Atsushi Togo


 DFT+U infrastructure was used in your run
 please cite:

 Matthias Kick, Karsten Reuter and Harald Oberhofer,
 Intricacies Of DFT+U, not only in a Numeric Atom Centered Orbital Framework

 Journal of Chemical Theory and Computation
 https://


  The ELSI infrastructure was used in your run to solve the Kohn-Sham electronic structure.
  Please check out http://elsi-interchange.org to learn more.
  If scalability is important for your project, please acknowledge ELSI by citing:

    V. W-z. Yu, F. Corsetti, A. Garcia, W. P. Huhn, M. Jacquelin, W. Jia,
    B. Lange, L. Lin, J. Lu, W. Mi, A. Seifitokaldani, A. Vazquez-Mayagoitia,
    C. Yang, H. Yang, and V. Blum
    'ELSI: A unified software interface for Kohn-Sham electronic structure solvers'
    Computer Physics Communications 222, 267-285 (2018).
    http://doi.org/10.1016/j.cpc.2017.09.007


  For the real-space grid partitioning and parallelization used in this calculation, please cite:

    Ville Havu, Volker Blum, Paula Havu, and Matthias Scheffler,
    'Efficient O(N) integration for all-electron electronic structure calculation'
    'using numerically tabulated basis functions'
    Journal of Computational Physics 228, 8367-8379 (2009).
    http://doi.org/10.1016/j.jcp.2009.08.008


  The high-level electronic structure method used in your calculation
  employed our efficient localized resolution of identity for the Coulomb operator.
  Some calculations, especially large-scale hybrid density functional theory,
  are only possible thanks to this development. For this feature, please cite:

    Arvid Ihrig, Juergen Wieferink, Igor Ying Zhang, Matti Ropo, Xinguo Ren,
    Patrick Rinke, Matthias Scheffler, and Volker Blum,
    'Accurate localized resolution of identity approach for linear-scaling
    hybrid density functionals and for many-body perturbation theory'
    New Journal of Physics 117, 093020 (2015).
    http://doi.org/10.1088/1367-2630/17/9/093020

  Of course, there are many other important community references, e.g., those cited in the
  above references. Our list is limited to references that describe implementations in the
  FHI-aims code. The reason is purely practical (length of this list) - please credit others as well.

 * A warning was issued further up regarding the accuracy of onsite integrals.
   An integral with a negative eigenvalue was among the flagged integrals.
   In most standard situations, this warning is probably harmless.
   If needed, this can be verified by adjusting the radial_multiplier flag.

   One or more s.c.f. cycles took more than 50 s.c.f. iterations.
   It might be worth adjusting your convergence settings. For example,
   metals need a larger broadening and a smaller "charge_mix_param" value than semiconductors.

------------------------------------------------------------
          Leaving FHI-aims.
          Date     :  20240522, Time     :  182028.700

          Computational steps:
          | Number of self-consistency cycles          :           51
          | Number of SCF (re)initializations          :            1

          Detailed time accounting                     :  max(cpu_time)    wall_clock(cpu1)
          | Total time                                  :     1967.687 s        1974.452 s
          | Preparation time                            :        0.686 s           0.685 s
          | Boundary condition initalization            :        0.191 s           0.192 s
          | Grid partitioning                           :        0.049 s           0.047 s
          | Preloading free-atom quantities on grid     :        0.068 s           0.070 s
          | Free-atom superposition energy              :        0.006 s           0.006 s
          | Total time for integrations                 :        4.513 s           4.525 s
          | Product basis setup: Total time             :      119.486 s         119.867 s
          | Total time evaluating exchange matrix       :     1816.078 s        1821.014 s
          | Total time for solution of K.-S. equations  :       12.120 s          12.138 s
          | Total time for density & force components   :        7.742 s           7.765 s
          | Total time for mixing                       :        0.470 s           0.264 s
          | Total time for Hartree multipole update     :        0.161 s           0.182 s
          | Total time for Hartree multipole sum        :        2.552 s           2.564 s
          | Total time for total energy evaluation      :        0.448 s           0.304 s
          | Total time NSC force correction             :        0.213 s           0.213 s
          | Total time for scaled ZORA corrections      :        0.000 s           0.000 s

          Partial memory accounting:
          | Residual value for overall tracked memory usage across tasks:     0.000000 MB (should be 0.000000 MB)
          | Peak values for overall tracked memory usage:
          |   Minimum:      184.560 MB (on task 149 after allocating tmpx2)
          |   Maximum:      572.207 MB (on task   7 after allocating tmp2_aux_mem)
          |   Average:      419.663 MB
          | Largest tracked array allocation:
          |   Minimum:       36.439 MB (d_aux_mat on task  72)
          |   Maximum:      296.990 MB (tmp2_aux_mem on task   7)
          |   Average:      196.656 MB
          Note:  These values currently only include a subset of arrays which are explicitly tracked.
          The "true" memory usage will be greater.

          Have a nice day.
------------------------------------------------------------
