------------------------------------------------------------
          Invoking FHI-aims ...

          When using FHI-aims, please cite the following reference:

            Volker Blum, Ralf Gehrke, Felix Hanke, Paula Havu,
            Ville Havu, Xinguo Ren, Karsten Reuter, and Matthias Scheffler,
            'Ab Initio Molecular Simulations with Numeric Atom-Centered Orbitals',
            Computer Physics Communications 180, 2175-2196 (2009)

          In addition, many other developments in FHI-aims are likely important for
          your particular application. A partial list of references is given at the end of
          this file. Thank you for giving credit to the authors of these developments.

          For any questions about FHI-aims, please visit our slack channel at

            https://fhi-aims.slack.com

          and our main development and support site at

            https://aims-git.rz-berlin.mpg.de .

          The latter site, in particular, has a wiki to collect information, as well
          as an issue tracker to log discussions, suggest improvements, and report issues
          or bugs. https://aims-git.rz-berlin.mpg.de is also the main development site
          of the project and all new and updated code versions can be obtained there.
          Please send an email to aims-coordinators@fhi-berlin.mpg.de and we will add
          you to these sites. They are for you and everyone is welcome there.

------------------------------------------------------------



  Date     :  20240521, Time     :  181423.078
  Time zero on CPU 1             :   0.287522000000000E+00  s.
  Internal wall clock time zero  :           485547263.078  s.

  FHI-aims created a unique identifier for this run for later identification
  aims_uuid : 0D793224-F109-4CE9-A672-D7EC1CC5D5D3

  Build configuration of the current instance of FHI-aims
  -------------------------------------------------------
  FHI-aims version      : 210309
  Commit number         : 8cf946fba
  CMake host system     : Linux-3.10.0-1127.13.1.el7.x86_64
  CMake version         : 3.17.3
  Fortran compiler      : /apps/compilers/intel/2018.2/compilers_and_libraries_2018/linux/mpi/intel64/bin/mpiifort (Intel) version 18.0.2.20180210
  Fortran compiler flags: -O3 -fp-model precise
  C compiler            : /apps/compilers/intel/2018.2/compilers_and_libraries_2018/linux/mpi/intel64/bin/mpicc (Intel) version 18.0.2.20180210
  C compiler flags      : -O3 -ip -fp-model precise -std=gnu99
  Using MPI
  Using ScaLAPACK
  Using LibXC
  Using i-PI
  Using RLSY
  Linking against: /apps/compilers/intel/2018.2/compilers_and_libraries_2018/linux/mkl/lib/intel64/libmkl_scalapack_lp64.so
                   /apps/compilers/intel/2018.2/compilers_and_libraries_2018/linux/mkl/lib/intel64/libmkl_blacs_intelmpi_lp64.so
                   /apps/compilers/intel/2018.2/compilers_and_libraries_2018/linux/mkl/lib/intel64/libmkl_intel_lp64.so
                   /apps/compilers/intel/2018.2/compilers_and_libraries_2018/linux/mkl/lib/intel64/libmkl_intel_thread.so
                   /apps/compilers/intel/2018.2/compilers_and_libraries_2018/linux/mkl/lib/intel64/libmkl_core.so
                   /usr/lib64/libpthread.so
                   /home/scw1057/software/libxc/libxc-4.3.4/lib/libxcf03.so
                   /home/scw1057/software/libxc/libxc-4.3.4/lib/libxcf90.so
                   /home/scw1057/software/libxc/libxc-4.3.4/lib/libxc.so

  Using       80 parallel tasks.
  Task        0 on host ccs0108 reporting.
  Task        1 on host ccs0108 reporting.
  Task        2 on host ccs0108 reporting.
  Task        3 on host ccs0108 reporting.
  Task        4 on host ccs0108 reporting.
  Task        5 on host ccs0108 reporting.
  Task        6 on host ccs0108 reporting.
  Task        7 on host ccs0108 reporting.
  Task        8 on host ccs0108 reporting.
  Task        9 on host ccs0108 reporting.
  Task       10 on host ccs0108 reporting.
  Task       11 on host ccs0108 reporting.
  Task       12 on host ccs0108 reporting.
  Task       13 on host ccs0108 reporting.
  Task       14 on host ccs0108 reporting.
  Task       15 on host ccs0108 reporting.
  Task       16 on host ccs0108 reporting.
  Task       17 on host ccs0108 reporting.
  Task       18 on host ccs0108 reporting.
  Task       19 on host ccs0108 reporting.
  Task       20 on host ccs0108 reporting.
  Task       21 on host ccs0108 reporting.
  Task       22 on host ccs0108 reporting.
  Task       23 on host ccs0108 reporting.
  Task       24 on host ccs0108 reporting.
  Task       25 on host ccs0108 reporting.
  Task       26 on host ccs0108 reporting.
  Task       27 on host ccs0108 reporting.
  Task       28 on host ccs0108 reporting.
  Task       29 on host ccs0108 reporting.
  Task       30 on host ccs0108 reporting.
  Task       31 on host ccs0108 reporting.
  Task       32 on host ccs0108 reporting.
  Task       33 on host ccs0108 reporting.
  Task       34 on host ccs0108 reporting.
  Task       35 on host ccs0108 reporting.
  Task       36 on host ccs0108 reporting.
  Task       37 on host ccs0108 reporting.
  Task       38 on host ccs0108 reporting.
  Task       39 on host ccs0108 reporting.
  Task       40 on host ccs0122 reporting.
  Task       41 on host ccs0122 reporting.
  Task       42 on host ccs0122 reporting.
  Task       43 on host ccs0122 reporting.
  Task       44 on host ccs0122 reporting.
  Task       45 on host ccs0122 reporting.
  Task       46 on host ccs0122 reporting.
  Task       47 on host ccs0122 reporting.
  Task       48 on host ccs0122 reporting.
  Task       49 on host ccs0122 reporting.
  Task       50 on host ccs0122 reporting.
  Task       51 on host ccs0122 reporting.
  Task       52 on host ccs0122 reporting.
  Task       53 on host ccs0122 reporting.
  Task       54 on host ccs0122 reporting.
  Task       55 on host ccs0122 reporting.
  Task       56 on host ccs0122 reporting.
  Task       57 on host ccs0122 reporting.
  Task       58 on host ccs0122 reporting.
  Task       59 on host ccs0122 reporting.
  Task       60 on host ccs0122 reporting.
  Task       61 on host ccs0122 reporting.
  Task       62 on host ccs0122 reporting.
  Task       63 on host ccs0122 reporting.
  Task       64 on host ccs0122 reporting.
  Task       65 on host ccs0122 reporting.
  Task       66 on host ccs0122 reporting.
  Task       67 on host ccs0122 reporting.
  Task       68 on host ccs0122 reporting.
  Task       69 on host ccs0122 reporting.
  Task       70 on host ccs0122 reporting.
  Task       71 on host ccs0122 reporting.
  Task       72 on host ccs0122 reporting.
  Task       73 on host ccs0122 reporting.
  Task       74 on host ccs0122 reporting.
  Task       75 on host ccs0122 reporting.
  Task       76 on host ccs0122 reporting.
  Task       77 on host ccs0122 reporting.
  Task       78 on host ccs0122 reporting.
  Task       79 on host ccs0122 reporting.

  Performing system and environment tests:
  *** Environment variable OMP_NUM_THREADS is not set
  *** For performance reasons you might want to set it to 1
  | Checking for ScaLAPACK...
  | Testing pdtran()...
  | All pdtran() tests passed.

  Obtaining array dimensions for all initial allocations:
  
  -----------------------------------------------------------------------
  Parsing control.in (first pass over file, find array dimensions only).
  The contents of control.in will be repeated verbatim below
  unless switched off by setting 'verbatim_writeout .false.' .
  in the first line of control.in .
  -----------------------------------------------------------------------
  
  #===============================================================================
  # FHI-aims file: ./control.in
  # Created using the Atomic Simulation Environment (ASE)
  # Tue May 21 18:14:20 2024
  #===============================================================================
  spin                               none
  relativistic                       atomic_zora scalar
  compute_forces                     .true.
  override_warning_libxc             true
  xc                                 libxc MGGA_X_MBEEF+GGA_C_PBE_SOL
  k_grid                             3 6 7
  occupation_type                    gaussian 0.1
  plus_u_petukhov_mixing             1
  sc_accuracy_etot                   1e-06
  sc_accuracy_eev                    0.001
  sc_accuracy_rho                    1e-06
  sc_accuracy_forces                 0.0001
  #===============================================================================
  
  ################################################################################
  #
  #  FHI-aims code project
  #  VB, Fritz-Haber Institut, 2009
  #
  #  Suggested "light" defaults for Li atom (to be pasted into control.in file)
  #  Be sure to double-check any results obtained with these settings for post-processing,
  #  e.g., with the "tight" defaults and larger basis sets.
  #
  ################################################################################
    species        Li
  #     global species definitions
      nucleus             3
      mass                6.941
  #
      l_hartree           4
  #
      cut_pot             3.5  1.5  1.0
      basis_dep_cutoff    1e-4
  #
      radial_base         29 5.0
      radial_multiplier   1
      angular_grids       specified
        division   0.4484  110
        division   0.5659  194
        division   0.6315  302
  #      division   0.6662  434
  #      division   0.8186  590
  #      division   0.9037  770
  #      division   6.2760  974
  #      outer_grid   974
        outer_grid   302
  ################################################################################
  #
  #  Definition of "minimal" basis
  #
  ################################################################################
  #     valence basis states
      valence      2  s   1.
  #     ion occupancy
      ion_occ      1  s   2.
  ################################################################################
  #
  #  Suggested additional basis functions. For production calculations,
  #  uncomment them one after another (the most important basis functions are
  #  listed first).
  #
  #  Constructed for dimers: 1.80 A, 2.25 A, 2.75 A, 3.50 A, 4.50 A
  #
  ################################################################################
  #  "First tier" - improvements: -189.23 meV to -6.35 meV
       hydro 2 p 1.6
       hydro 2 s 2
       hydro 3 d 2.6
  #  "Second tier" - improvements: -4.69 meV to -0.41 meV
  #     hydro 3 p 4.6
  #     hydro 2 p 1.8
  #     hydro 3 s 6.2
  #     hydro 4 d 4.7
  #     hydro 4 f 4.1
  #  "Third tier" - improvements: -0.20 meV to -0.15 meV
  #     hydro 4 d 0.95
  #     hydro 3 p 6.2
  #     hydro 3 s 1.7
  #  Further functions, listed for completeness
  #     VB: The following functions are only listed for completeness; test very
  #         carefully before any kind of production use. From the point of view
  #         of the basis construction, their main role is to fill up space,
  #         and they are solely determined by the location of the cutoff potential.
  #     hydro 3 p 0.1  # -0.15 meV
  #     hydro 4 d 5    # -0.12 meV
  #     hydro 4 f 0.1  # -0.14 meV
  #     hydro 5 g 0.1  # -0.06 meV
  
  
  ################################################################################
  #
  #  FHI-aims code project
  #  VB, Fritz-Haber Institut, 2009
  #
  #  Suggested "light" defaults for Fe atom (to be pasted into control.in file)
  #  Be sure to double-check any results obtained with these settings for post-processing,
  #  e.g., with the "tight" defaults and larger basis sets.
  #
  ################################################################################
    species        Fe
  #     global species definitions
      nucleus             26
      mass                55.845
  #
      l_hartree           4
  #
      cut_pot             3.5          1.5  1.0
      basis_dep_cutoff    1e-4
  #
      radial_base         51 5.0
      radial_multiplier   1
      angular_grids       specified
        division   0.4337   50
        division   0.8154  110
        division   1.1046  194
        division   1.3713  302
  #      division   1.5424  434
  #      division   1.7365  590
  #      division   1.9587  770
  #      division   1.9990  974
  #      division   2.4139 1202
  #      outer_grid  1202
        outer_grid  302
  ################################################################################
  #
  #  Definition of "minimal" basis
  #
  ################################################################################
  #     valence basis states
      valence      4  s   2.
      valence      3  p   6.
      valence      3  d   6.
  #     ion occupancy
      ion_occ      4  s   1.
      ion_occ      3  p   6.
      ion_occ      3  d   5.
  ################################################################################
  #
  #  Suggested additional basis functions. For production calculations,
  #  uncomment them one after another (the most important basis functions are
  #  listed first).
  #
  #  Constructed for dimers: 1.45 A, 1.725 A, 2.25 A, 3.00 A, 4.00 A
  #
  ################################################################################
  #  "First tier" - improvements: -300.53 meV to -10.50 meV
       hydro 4 f 9.4
       hydro 2 p 2.2
  #     hydro 5 g 12.4
       hydro 3 d 3.1
       ionic 4 s auto
  #  "Second tier" - improvements: -16.31 meV to -0.65 meV
  #     hydro 3 d 6.2
  #     hydro 6 h 19.2
  #     hydro 4 f 15.2
  #     hydro 4 f 6.6
  #     hydro 3 p 3
  #     hydro 5 g 13.2
  #     hydro 1 s 0.65
  #  "Third tier" - improvements: -1.60 meV to -0.10 meV
  #     hydro 4 d 7.8
  #     hydro 4 p 19.6
  #     hydro 4 d 10.4
  #     ionic 4 p auto
  #     hydro 6 h 17.6
  #     hydro 5 f 27.2
  #     hydro 4 s 4.8
  #  "Fourth tier": improvements -0.13 meV and below
  #     hydro 5 f 12
  #     hydro 5 g 10.4
  #     hydro 5 p 8.4
  #     hydro 4 d 14.8
  #     hydro 2 s 1.9
  plus_u 3 d 0
  ################################################################################
  #
  #  FHI-aims code project
  #  VB, Fritz-Haber Institut, 2010
  #
  #  Suggested "light" defaults for P atom (to be pasted into control.in file)
  #  Be sure to double-check any results obtained with these settings for post-processing,
  #  e.g., with the "tight" defaults and larger basis sets.
  #
  #  2020/09/08 Added f function to "light" after reinspection of Delta test outcomes.
  #             This was done for all of Al-Cl and is a tricky decision since it makes
  #             "light" calculations measurably more expensive for these elements.
  #             Nevertheless, outcomes for P, S, Cl (and to some extent, Si) appear
  #             to justify this choice.
  #
  ################################################################################
    species        P
  #     global species definitions
      nucleus             15
      mass                30.973762
  #
      l_hartree           4
  #
      cut_pot             3.5          1.5  1.0
      basis_dep_cutoff    1e-4
  #
      radial_base         43 5.0
      radial_multiplier   1
      angular_grids       specified
        division   0.5527   50
        division   0.8801  110
        division   1.1447  194
        division   1.3165  302
  #      division   1.4113  434
  #      division   1.4781  590
  #      division   1.5482  770
  #      division   1.5845  974
  #      division   2.2606 1202
        outer_grid  302
  ################################################################################
  #
  #  Definition of "minimal" basis
  #
  ################################################################################
  #     valence basis states
      valence      3  s   2.
      valence      3  p   3.
  #     ion occupancy
      ion_occ      3  s   1.
      ion_occ      3  p   2.
  ################################################################################
  #
  #  Suggested additional basis functions. For production calculations,
  #  uncomment them one after another (the most important basis functions are
  #  listed first).
  #
  #  Constructed for dimers: 1.625 A, 1.875 A, 2.5 A, 3.25 A, 4.0 A
  #
  ################################################################################
  #  "First tier" - improvements: -726.20 meV to -35.91 meV
       ionic 3 d auto
       ionic 3 p auto
       hydro 4 f 6.2
  #     hydro 5 g 8.6
       ionic 3 s auto
  #  "Second tier" - improvements: -16.02 meV to -1.71 meV
  #     hydro 4 d 6.2
  #     hydro 4 p 9.2
  #     hydro 5 f 9.8
  #     hydro 1 s 0.7
  #     hydro 5 g 13.2
  #  "Third tier" - improvements: -1.82 meV to -0.20 meV
  #     hydro 3 p 2.5
  #     hydro 4 d 6.4
  #     hydro 5 f 11.2
  #     hydro 2 s 1.5
  #  "Fourth tier" - improvements: -0.91 meV to -0.17 meV
  #     hydro 3 d 16.8
  #     hydro 5 g 18
  #     hydro 4 p 4.5
  #     hydro 3 s 2.1
  #  Further basis functions that fell out of the optimization - < -0.09 meV
  #     hydro 4 p 10.4
  #     hydro 4 d 17.6
  #     hydro 4 s 11.2
  ################################################################################
  #
  #  FHI-aims code project
  #  VB, Fritz-Haber Institut, 2009
  #
  #  Suggested "light" defaults for O atom (to be pasted into control.in file)
  #  Be sure to double-check any results obtained with these settings for post-processing,
  #  e.g., with the "tight" defaults and larger basis sets.
  #
  ################################################################################
    species        O
  #     global species definitions
      nucleus             8
      mass                15.9994
  #
      l_hartree           4
  #
      cut_pot             3.5  1.5  1.0
      basis_dep_cutoff    1e-4
  #
      radial_base         36 5.0
      radial_multiplier   1
       angular_grids specified
        division   0.2659   50
        division   0.4451  110
        division   0.6052  194
        division   0.7543  302
  #      division   0.8014  434
  #      division   0.8507  590
  #      division   0.8762  770
  #      division   0.9023  974
  #      division   1.2339 1202
  #      outer_grid 974
        outer_grid 302
  ################################################################################
  #
  #  Definition of "minimal" basis
  #
  ################################################################################
  #     valence basis states
      valence      2  s   2.
      valence      2  p   4.
  #     ion occupancy
      ion_occ      2  s   1.
      ion_occ      2  p   3.
  ################################################################################
  #
  #  Suggested additional basis functions. For production calculations,
  #  uncomment them one after another (the most important basis functions are
  #  listed first).
  #
  #  Constructed for dimers: 1.0 A, 1.208 A, 1.5 A, 2.0 A, 3.0 A
  #
  ################################################################################
  #  "First tier" - improvements: -699.05 meV to -159.38 meV
       hydro 2 p 1.8
       hydro 3 d 7.6
       hydro 3 s 6.4
  #  "Second tier" - improvements: -49.91 meV to -5.39 meV
  #     hydro 4 f 11.6
  #     hydro 3 p 6.2
  #     hydro 3 d 5.6
  #     hydro 5 g 17.6
  #     hydro 1 s 0.75
  #  "Third tier" - improvements: -2.83 meV to -0.50 meV
  #     ionic 2 p auto
  #     hydro 4 f 10.8
  #     hydro 4 d 4.7
  #     hydro 2 s 6.8
  #  "Fourth tier" - improvements: -0.40 meV to -0.12 meV
  #     hydro 3 p 5
  #     hydro 3 s 3.3
  #     hydro 5 g 15.6
  #     hydro 4 f 17.6
  #     hydro 4 d 14
  # Further basis functions - -0.08 meV and below
  #     hydro 3 s 2.1
  #     hydro 4 d 11.6
  #     hydro 3 p 16
  #     hydro 2 s 17.2
  plus_u 2 p 0
  
  -----------------------------------------------------------------------
  Completed first pass over input file control.in .
  -----------------------------------------------------------------------
  
  
  -----------------------------------------------------------------------
  Parsing geometry.in (first pass over file, find array dimensions only).
  The contents of geometry.in will be repeated verbatim below
  unless switched off by setting 'verbatim_writeout .false.' .
  in the first line of geometry.in .
  -----------------------------------------------------------------------
  
  #=======================================================
  # FHI-aims file: ./geometry.in
  # Created using the Atomic Simulation Environment (ASE)
  # Tue May 21 18:14:20 2024
  #=======================================================
  lattice_vector 10.3480000000000008 0.0000000000000000 0.0000000000000000
  lattice_vector 0.0000000000000000 6.0180999999999996 0.0000000000000000
  lattice_vector 0.0000000000000000 0.0000000000000000 4.6996799999999999
  atom_frac 0.4999999999964224 -0.0000000000095126 0.5000000010569811 Li
  atom_frac -0.0000000001275128 0.5000000013301242 0.0000000004024561 Li
  atom_frac 0.5000000000712038 0.4999999998955477 0.4999999993995021 Li
  atom_frac 0.0000000001622904 0.0000000012235924 0.0000000000048543 Li
  atom_frac 0.7697305521147534 0.2499999976501727 0.5106789276143590 Fe
  atom_frac 0.2697305524297015 0.2500000003044057 0.9893210716842813 Fe
  atom_frac 0.2302694476306719 0.7500000020692712 0.4893210719505668 Fe
  atom_frac 0.7302694472561091 0.7499999996586767 0.0106789273016310 Fe
  atom_frac 0.5971656932597803 0.2499999995622249 0.0833183720191508 P
  atom_frac 0.0971656934238434 0.2500000015362210 0.4166816282189833 P
  atom_frac 0.4028343067400288 0.7499999989518027 0.9166816281383202 P
  atom_frac 0.9028343066500399 0.7499999996433059 0.5833183717663076 P
  atom_frac 0.6047547151630022 0.2499999987058367 0.7576388279748425 O
  atom_frac 0.1047547154023457 0.2500000005037067 0.7423611722706127 O
  atom_frac 0.3952452848409514 0.7500000005720450 0.2423611721222632 O
  atom_frac 0.8952452846677097 0.7499999997590560 0.2576388277332127 O
  atom_frac 0.9567937873623312 0.2499999991556615 0.3060416508478783 O
  atom_frac 0.4567937871797705 0.2499999997812690 0.1939583495666975 O
  atom_frac 0.0432062127383118 0.7500000010468376 0.6939583492100125 O
  atom_frac 0.5432062128401314 0.7499999994182763 0.8060416505306039 O
  atom_frac 0.6673338487405367 0.0466761179950761 0.2267587317217562 O
  atom_frac 0.1673338480664284 0.4533238836882794 0.2732412684216858 O
  atom_frac 0.3326661513441930 0.5466761175539654 0.7732412682190664 O
  atom_frac 0.8326661504884335 0.9533238803625711 0.7267587323684020 O
  atom_frac 0.3326661512268034 0.9533238805047571 0.7732412683849159 O
  atom_frac 0.8326661517409358 0.5466761174257762 0.7267587309139860 O
  atom_frac 0.6673338487591535 0.4533238809529996 0.2267587317299468 O
  atom_frac 0.1673338498316292 0.0466761207580546 0.2732412684267214 O
  
  -----------------------------------------------------------------------
  Completed first pass over input file geometry.in .
  -----------------------------------------------------------------------
  

  Basic array size parameters:
  | Number of species                 :        4
  | Number of atoms                   :       28
  | Number of lattice vectors         :        3
  | Max. basis fn. angular momentum   :        3
  | Max. atomic/ionic basis occupied n:        4
  | Max. number of basis fn. types    :        3
  | Max. radial fns per species/type  :        7
  | Max. logarithmic grid size        :     1397
  | Max. radial integration grid size :       51
  | Max. angular integration grid size:      302
  | Max. angular grid division number :        8
  | Radial grid for Hartree potential :     1397
  | Number of spin channels           :        1
  | Max. number of (n,l) shells per species with '+U' treatment:        1

------------------------------------------------------------
          Reading file control.in.
------------------------------------------------------------
  Spin treatment: No spin polarisation.
  Scalar relativistic treatment of kinetic energy: on-site free-atom approximation to ZORA.
  Forces will be computed.
  XC: Using LibXC. Please refer to LibXC output for further details.
  Using libxc - Initializing
  Libxc version: 4.3.4


  ** PLEASE ** be careful using LibXC. Whilst most of the LDA, GGA and MGGA functionals,
  and hybrid variations therein, should be stable (though we always recommend testing!),
  there are several fancy functionals with e.g. range-separation, like HSE03/HSE06/LC-PBEh,
  and also MGGA functionals that depend on the laplacian of the density, like BR89,
  that are not fully implemented due to the infrastrucutre for these functionals being incomplete or non-generic.
  If you want to use these functionals please contact the development team and we will work on them with you!

  You have selected libxc functional MGGA_X_MBEEF (249)
    - Description: mBEEF exchange
    - Type: MGGA(Exchange)
    - Reference to Literature:
      [1] J. Wellendorff, K. T. Lundgaard, K. W. Jacobsen, and T. Bligaard, J. Chem. Phys. 140, 144107 (2014)

  You have selected libxc functional GGA_C_PBE_SOL (133)
    - Description: Perdew, Burke & Ernzerhof SOL
    - Type: GGA(Correlation)
    - Reference to Literature:
      [1] J. P. Perdew, A. Ruzsinszky, G. I. Csonka, O. A. Vydrov, G. E. Scuseria, L. A. Constantin, X. Zhou, and K. Burke, Phys.

  Switching on meta-ggas
  Found k-point grid:         3         6         7
  Occupation type: Gaussian broadening, width =   0.100000E+00 eV.
  Fixing petukhov mixing factor to   1.000000000000
  Convergence accuracy of total energy:  0.1000E-05
  Convergence accuracy of sum of eigenvalues:  0.1000E-02
  Convergence accuracy of self-consistent charge density:  0.1000E-05
  Convergence accuracy of forces:  0.1000E-03
 
  Reading configuration options for species Li                  .
  | Found nuclear charge :   3.0000
  | Found atomic mass :    6.94100000000000      amu
  | Found l_max for Hartree potential  :   4
  | Found cutoff potl. onset [A], width [A], scale factor :    3.50000    1.50000    1.00000
  | Threshold for basis-dependent cutoff potential is   0.100000E-03
  | Found data for basic radial integration grid :    29 points, outermost radius =    5.000 A
  | Found multiplier for basic radial grid :   1
  | Found angular grid specification: user-specified.
  | Specified grid contains     4 separate shells.
  | Check grid settings after all constraints further below.
  | Found free-atom valence shell :  2 s   1.000
  | Found free-ion valence shell :  1 s   2.000
  | Found hydrogenic basis function :  2 p   1.600
  | Found hydrogenic basis function :  2 s   2.000
  | Found hydrogenic basis function :  3 d   2.600
  Species Li                  : Missing cutoff potential type.
  Defaulting to exp(1/x)/(1-x)^2 type cutoff potential.
  Species Li: No 'logarithmic' tag. Using default grid for free atom:
  | Default logarithmic grid data [bohr] : 0.1000E-03 0.1000E+03 0.1012E+01
  Species Li: On-site basis accuracy parameter (for Gram-Schmidt orthonormalisation) not specified.
  Using default value basis_acc =  0.1000000E-03.
  Species Li                  : Using default innermost maximum threshold i_radial=  2 for radial functions.
  Species Li                  : Default cutoff onset for free atom density etc. : 0.35000000E+01 AA.
  Species Li                  : Basic radial grid will be enhanced according to radial_multiplier =   1, to contain    29 grid points.
 
  Reading configuration options for species Fe                  .
  | Found nuclear charge :  26.0000
  | Found atomic mass :    55.8450000000000      amu
  | Found l_max for Hartree potential  :   4
  | Found cutoff potl. onset [A], width [A], scale factor :    3.50000    1.50000    1.00000
  | Threshold for basis-dependent cutoff potential is   0.100000E-03
  | Found data for basic radial integration grid :    51 points, outermost radius =    5.000 A
  | Found multiplier for basic radial grid :   1
  | Found angular grid specification: user-specified.
  | Specified grid contains     5 separate shells.
  | Check grid settings after all constraints further below.
  | Found free-atom valence shell :  4 s   2.000
  | Found free-atom valence shell :  3 p   6.000
  | Found free-atom valence shell :  3 d   6.000
  | Found free-ion valence shell :  4 s   1.000
  | Found free-ion valence shell :  3 p   6.000
  | Found free-ion valence shell :  3 d   5.000
  | Found hydrogenic basis function :  4 f   9.400
  | Found hydrogenic basis function :  2 p   2.200
  | Found hydrogenic basis function :  3 d   3.100
  | Found ionic basis function :  4 s , default cutoff radius.
  | Found request for '+U' treatment for  3 d shell, U =     0.000000 eV.
  Species Fe                  : Missing cutoff potential type.
  Defaulting to exp(1/x)/(1-x)^2 type cutoff potential.
  Species Fe: No 'logarithmic' tag. Using default grid for free atom:
  | Default logarithmic grid data [bohr] : 0.1000E-03 0.1000E+03 0.1012E+01
  | Will include ionic basis functions of  2.0-fold positive Fe                   ion.
  Species Fe: On-site basis accuracy parameter (for Gram-Schmidt orthonormalisation) not specified.
  Using default value basis_acc =  0.1000000E-03.
  Species Fe                  : Using default innermost maximum threshold i_radial=  2 for radial functions.
  Species Fe                  : Default cutoff onset for free atom density etc. : 0.35000000E+01 AA.
  Species Fe                  : Basic radial grid will be enhanced according to radial_multiplier =   1, to contain    51 grid points.
 
  Reading configuration options for species P                   .
  | Found nuclear charge :  15.0000
  | Found atomic mass :    30.9737620000000      amu
  | Found l_max for Hartree potential  :   4
  | Found cutoff potl. onset [A], width [A], scale factor :    3.50000    1.50000    1.00000
  | Threshold for basis-dependent cutoff potential is   0.100000E-03
  | Found data for basic radial integration grid :    43 points, outermost radius =    5.000 A
  | Found multiplier for basic radial grid :   1
  | Found angular grid specification: user-specified.
  | Specified grid contains     5 separate shells.
  | Check grid settings after all constraints further below.
  | Found free-atom valence shell :  3 s   2.000
  | Found free-atom valence shell :  3 p   3.000
  | Found free-ion valence shell :  3 s   1.000
  | Found free-ion valence shell :  3 p   2.000
  | Found ionic basis function :  3 d , default cutoff radius.
  | Found ionic basis function :  3 p , default cutoff radius.
  | Found hydrogenic basis function :  4 f   6.200
  | Found ionic basis function :  3 s , default cutoff radius.
  Species P                   : Missing cutoff potential type.
  Defaulting to exp(1/x)/(1-x)^2 type cutoff potential.
  Species P : No 'logarithmic' tag. Using default grid for free atom:
  | Default logarithmic grid data [bohr] : 0.1000E-03 0.1000E+03 0.1012E+01
  | Will include ionic basis functions of  2.0-fold positive P                    ion.
  Species P : On-site basis accuracy parameter (for Gram-Schmidt orthonormalisation) not specified.
  Using default value basis_acc =  0.1000000E-03.
  Species P                   : Using default innermost maximum threshold i_radial=  2 for radial functions.
  Species P                   : Default cutoff onset for free atom density etc. : 0.35000000E+01 AA.
  Species P                   : Basic radial grid will be enhanced according to radial_multiplier =   1, to contain    43 grid points.
 
  Reading configuration options for species O                   .
  | Found nuclear charge :   8.0000
  | Found atomic mass :    15.9994000000000      amu
  | Found l_max for Hartree potential  :   4
  | Found cutoff potl. onset [A], width [A], scale factor :    3.50000    1.50000    1.00000
  | Threshold for basis-dependent cutoff potential is   0.100000E-03
  | Found data for basic radial integration grid :    36 points, outermost radius =    5.000 A
  | Found multiplier for basic radial grid :   1
  | Found angular grid specification: user-specified.
  | Specified grid contains     5 separate shells.
  | Check grid settings after all constraints further below.
  | Found free-atom valence shell :  2 s   2.000
  | Found free-atom valence shell :  2 p   4.000
  | Found free-ion valence shell :  2 s   1.000
  | Found free-ion valence shell :  2 p   3.000
  | Found hydrogenic basis function :  2 p   1.800
  | Found hydrogenic basis function :  3 d   7.600
  | Found hydrogenic basis function :  3 s   6.400
  | Found request for '+U' treatment for  2 p shell, U =     0.000000 eV.
  Species O                   : Missing cutoff potential type.
  Defaulting to exp(1/x)/(1-x)^2 type cutoff potential.
  Species O : No 'logarithmic' tag. Using default grid for free atom:
  | Default logarithmic grid data [bohr] : 0.1000E-03 0.1000E+03 0.1012E+01
  Species O : On-site basis accuracy parameter (for Gram-Schmidt orthonormalisation) not specified.
  Using default value basis_acc =  0.1000000E-03.
  Species O                   : Using default innermost maximum threshold i_radial=  2 for radial functions.
  Species O                   : Default cutoff onset for free atom density etc. : 0.35000000E+01 AA.
  Species O                   : Basic radial grid will be enhanced according to radial_multiplier =   1, to contain    36 grid points.
 
  Finished reading input file 'control.in'.
 
------------------------------------------------------------


------------------------------------------------------------
          Reading geometry description geometry.in.
------------------------------------------------------------
  | The smallest distance between any two atoms is         1.53260295 AA.
  | The first atom of this pair is atom number                     11 .
  | The second atom of this pair is atom number                    15 .
  | Wigner-Seitz cell of the first atom image           0     0     0 .
  | (The Wigner-Seitz cell of the second atom is 0 0 0  by definition.)

  Symmetry information by spglib:
  | Precision set to  0.1E-04
  | Number of Operations  : 8
  | Space group           : 62
  | International         : Pnma    p z
  | Schoenflies           : D2h^16
  Input structure read successfully.
  The structure contains       28 atoms,  and a total of        304.000 electrons.

  Input geometry:
  | Unit cell:
  |       10.34800000        0.00000000        0.00000000
  |        0.00000000        6.01810000        0.00000000
  |        0.00000000        0.00000000        4.69968000
  | Atomic structure:
  |       Atom                x [A]            y [A]            z [A]
  |    1: Species Li            5.17400000       -0.00000000        2.34984000
  |    2: Species Li           -0.00000000        3.00905001        0.00000000
  |    3: Species Li            5.17400000        3.00905000        2.34984000
  |    4: Species Li            0.00000000        0.00000001        0.00000000
  |    5: Species Fe            7.96517175        1.50452499        2.40002754
  |    6: Species Fe            2.79117176        1.50452500        4.64949245
  |    7: Species Fe            2.38282824        4.51357501        2.29965246
  |    8: Species Fe            7.55682824        4.51357500        0.05018754
  |    9: Species P             6.17947059        1.50452500        0.39156969
  |   10: Species P             1.00547060        1.50452501        1.95827031
  |   11: Species P             4.16852941        4.51357499        4.30811031
  |   12: Species P             9.34252941        4.51357500        2.74140969
  |   13: Species O             6.25800179        1.50452499        3.56066005
  |   14: Species O             1.08400179        1.50452500        3.48885995
  |   15: Species O             4.08999821        4.51357500        1.13901995
  |   16: Species O             9.26399821        4.51357500        1.21082005
  |   17: Species O             9.90090211        1.50452499        1.43829783
  |   18: Species O             4.72690211        1.50452500        0.91154218
  |   19: Species O             0.44709789        4.51357501        3.26138217
  |   20: Species O             5.62109789        4.51357500        3.78813782
  |   21: Species O             6.90557067        0.28090155        1.06569348
  |   22: Species O             1.73157066        2.72814846        1.28414652
  |   23: Species O             3.44242933        3.28995154        3.63398652
  |   24: Species O             8.61642933        5.73719844        3.41553348
  |   25: Species O             3.44242933        5.73719845        3.63398652
  |   26: Species O             8.61642934        3.28995154        3.41553347
  |   27: Species O             6.90557067        2.72814845        1.06569348
  |   28: Species O             1.73157068        0.28090156        1.28414652

  Lattice parameters for 3D lattice (in Angstroms) :    10.348000    6.018100    4.699680
  Angle(s) between unit vectors (in degrees)       :    90.000000   90.000000   90.000000


  Quantities derived from the lattice vectors:
  | Reciprocal lattice vector 1:  0.607188  0.000000  0.000000
  | Reciprocal lattice vector 2:  0.000000  1.044048  0.000000
  | Reciprocal lattice vector 3:  0.000000  0.000000  1.336939
  | Unit cell volume                               :   0.292674E+03  A^3

  Fractional coordinates:
                         L1                L2                L3
       atom_frac         0.50000000       -0.00000000        0.50000000  Li
       atom_frac        -0.00000000        0.50000000        0.00000000  Li
       atom_frac         0.50000000        0.50000000        0.50000000  Li
       atom_frac         0.00000000        0.00000000        0.00000000  Li
       atom_frac         0.76973055        0.25000000        0.51067893  Fe
       atom_frac         0.26973055        0.25000000        0.98932107  Fe
       atom_frac         0.23026945        0.75000000        0.48932107  Fe
       atom_frac         0.73026945        0.75000000        0.01067893  Fe
       atom_frac         0.59716569        0.25000000        0.08331837  P
       atom_frac         0.09716569        0.25000000        0.41668163  P
       atom_frac         0.40283431        0.75000000        0.91668163  P
       atom_frac         0.90283431        0.75000000        0.58331837  P
       atom_frac         0.60475472        0.25000000        0.75763883  O
       atom_frac         0.10475472        0.25000000        0.74236117  O
       atom_frac         0.39524528        0.75000000        0.24236117  O
       atom_frac         0.89524528        0.75000000        0.25763883  O
       atom_frac         0.95679379        0.25000000        0.30604165  O
       atom_frac         0.45679379        0.25000000        0.19395835  O
       atom_frac         0.04320621        0.75000000        0.69395835  O
       atom_frac         0.54320621        0.75000000        0.80604165  O
       atom_frac         0.66733385        0.04667612        0.22675873  O
       atom_frac         0.16733385        0.45332388        0.27324127  O
       atom_frac         0.33266615        0.54667612        0.77324127  O
       atom_frac         0.83266615        0.95332388        0.72675873  O
       atom_frac         0.33266615        0.95332388        0.77324127  O
       atom_frac         0.83266615        0.54667612        0.72675873  O
       atom_frac         0.66733385        0.45332388        0.22675873  O
       atom_frac         0.16733385        0.04667612        0.27324127  O

 
  Finished reading input file 'control.in'.
 

------------------------------------------------------------
          Reading geometry description geometry.in.
------------------------------------------------------------
 
  Consistency checks for stacksize environment parameter are next.
 
  | Maximum stacksize for task 0: unlimited
  | Maximum stacksize for task 1: unlimited
  | Maximum stacksize for task 2: unlimited
  | Maximum stacksize for task 3: unlimited
  | Maximum stacksize for task 4: unlimited
  | Maximum stacksize for task 5: unlimited
  | Maximum stacksize for task 6: unlimited
  | Maximum stacksize for task 7: unlimited
  | Maximum stacksize for task 8: unlimited
  | Maximum stacksize for task 9: unlimited
  | Maximum stacksize for task 10: unlimited
  | Maximum stacksize for task 11: unlimited
  | Maximum stacksize for task 12: unlimited
  | Maximum stacksize for task 13: unlimited
  | Maximum stacksize for task 14: unlimited
  | Maximum stacksize for task 15: unlimited
  | Maximum stacksize for task 16: unlimited
  | Maximum stacksize for task 17: unlimited
  | Maximum stacksize for task 18: unlimited
  | Maximum stacksize for task 19: unlimited
  | Maximum stacksize for task 20: unlimited
  | Maximum stacksize for task 21: unlimited
  | Maximum stacksize for task 22: unlimited
  | Maximum stacksize for task 23: unlimited
  | Maximum stacksize for task 24: unlimited
  | Maximum stacksize for task 25: unlimited
  | Maximum stacksize for task 26: unlimited
  | Maximum stacksize for task 27: unlimited
  | Maximum stacksize for task 28: unlimited
  | Maximum stacksize for task 29: unlimited
  | Maximum stacksize for task 30: unlimited
  | Maximum stacksize for task 31: unlimited
  | Maximum stacksize for task 32: unlimited
  | Maximum stacksize for task 33: unlimited
  | Maximum stacksize for task 34: unlimited
  | Maximum stacksize for task 35: unlimited
  | Maximum stacksize for task 36: unlimited
  | Maximum stacksize for task 37: unlimited
  | Maximum stacksize for task 38: unlimited
  | Maximum stacksize for task 39: unlimited
  | Maximum stacksize for task 40: unlimited
  | Maximum stacksize for task 41: unlimited
  | Maximum stacksize for task 42: unlimited
  | Maximum stacksize for task 43: unlimited
  | Maximum stacksize for task 44: unlimited
  | Maximum stacksize for task 45: unlimited
  | Maximum stacksize for task 46: unlimited
  | Maximum stacksize for task 47: unlimited
  | Maximum stacksize for task 48: unlimited
  | Maximum stacksize for task 49: unlimited
  | Maximum stacksize for task 50: unlimited
  | Maximum stacksize for task 51: unlimited
  | Maximum stacksize for task 52: unlimited
  | Maximum stacksize for task 53: unlimited
  | Maximum stacksize for task 54: unlimited
  | Maximum stacksize for task 55: unlimited
  | Maximum stacksize for task 56: unlimited
  | Maximum stacksize for task 57: unlimited
  | Maximum stacksize for task 58: unlimited
  | Maximum stacksize for task 59: unlimited
  | Maximum stacksize for task 60: unlimited
  | Maximum stacksize for task 61: unlimited
  | Maximum stacksize for task 62: unlimited
  | Maximum stacksize for task 63: unlimited
  | Maximum stacksize for task 64: unlimited
  | Maximum stacksize for task 65: unlimited
  | Maximum stacksize for task 66: unlimited
  | Maximum stacksize for task 67: unlimited
  | Maximum stacksize for task 68: unlimited
  | Maximum stacksize for task 69: unlimited
  | Maximum stacksize for task 70: unlimited
  | Maximum stacksize for task 71: unlimited
  | Maximum stacksize for task 72: unlimited
  | Maximum stacksize for task 73: unlimited
  | Maximum stacksize for task 74: unlimited
  | Maximum stacksize for task 75: unlimited
  | Maximum stacksize for task 76: unlimited
  | Maximum stacksize for task 77: unlimited
  | Maximum stacksize for task 78: unlimited
  | Maximum stacksize for task 79: unlimited
  | Current stacksize for task 0: unlimited
  | Current stacksize for task 1: unlimited
  | Current stacksize for task 2: unlimited
  | Current stacksize for task 3: unlimited
  | Current stacksize for task 4: unlimited
  | Current stacksize for task 5: unlimited
  | Current stacksize for task 6: unlimited
  | Current stacksize for task 7: unlimited
  | Current stacksize for task 8: unlimited
  | Current stacksize for task 9: unlimited
  | Current stacksize for task 10: unlimited
  | Current stacksize for task 11: unlimited
  | Current stacksize for task 12: unlimited
  | Current stacksize for task 13: unlimited
  | Current stacksize for task 14: unlimited
  | Current stacksize for task 15: unlimited
  | Current stacksize for task 16: unlimited
  | Current stacksize for task 17: unlimited
  | Current stacksize for task 18: unlimited
  | Current stacksize for task 19: unlimited
  | Current stacksize for task 20: unlimited
  | Current stacksize for task 21: unlimited
  | Current stacksize for task 22: unlimited
  | Current stacksize for task 23: unlimited
  | Current stacksize for task 24: unlimited
  | Current stacksize for task 25: unlimited
  | Current stacksize for task 26: unlimited
  | Current stacksize for task 27: unlimited
  | Current stacksize for task 28: unlimited
  | Current stacksize for task 29: unlimited
  | Current stacksize for task 30: unlimited
  | Current stacksize for task 31: unlimited
  | Current stacksize for task 32: unlimited
  | Current stacksize for task 33: unlimited
  | Current stacksize for task 34: unlimited
  | Current stacksize for task 35: unlimited
  | Current stacksize for task 36: unlimited
  | Current stacksize for task 37: unlimited
  | Current stacksize for task 38: unlimited
  | Current stacksize for task 39: unlimited
  | Current stacksize for task 40: unlimited
  | Current stacksize for task 41: unlimited
  | Current stacksize for task 42: unlimited
  | Current stacksize for task 43: unlimited
  | Current stacksize for task 44: unlimited
  | Current stacksize for task 45: unlimited
  | Current stacksize for task 46: unlimited
  | Current stacksize for task 47: unlimited
  | Current stacksize for task 48: unlimited
  | Current stacksize for task 49: unlimited
  | Current stacksize for task 50: unlimited
  | Current stacksize for task 51: unlimited
  | Current stacksize for task 52: unlimited
  | Current stacksize for task 53: unlimited
  | Current stacksize for task 54: unlimited
  | Current stacksize for task 55: unlimited
  | Current stacksize for task 56: unlimited
  | Current stacksize for task 57: unlimited
  | Current stacksize for task 58: unlimited
  | Current stacksize for task 59: unlimited
  | Current stacksize for task 60: unlimited
  | Current stacksize for task 61: unlimited
  | Current stacksize for task 62: unlimited
  | Current stacksize for task 63: unlimited
  | Current stacksize for task 64: unlimited
  | Current stacksize for task 65: unlimited
  | Current stacksize for task 66: unlimited
  | Current stacksize for task 67: unlimited
  | Current stacksize for task 68: unlimited
  | Current stacksize for task 69: unlimited
  | Current stacksize for task 70: unlimited
  | Current stacksize for task 71: unlimited
  | Current stacksize for task 72: unlimited
  | Current stacksize for task 73: unlimited
  | Current stacksize for task 74: unlimited
  | Current stacksize for task 75: unlimited
  | Current stacksize for task 76: unlimited
  | Current stacksize for task 77: unlimited
  | Current stacksize for task 78: unlimited
  | Current stacksize for task 79: unlimited
 
  Consistency checks for the contents of control.in are next.
 
  MPI_IN_PLACE appears to work with this MPI implementation.
  | Keeping use_mpi_in_place .true. (see manual).
  Target number of points in a grid batch is not set. Defaulting to  100
  Method for grid partitioning is not set. Defaulting to parallel hash+maxmin partitioning.
  Batch size limit is not set. Defaulting to    200
  By default, will store active basis functions for each batch.
  If in need of memory, prune_basis_once .false. can be used to disable this option.
  communication_type for Hartree potential was not specified.
  Defaulting to calc_hartree .
  Defaulting to Pulay charge density mixer.
  Pulay mixer: Number of relevant iterations not set.
  Defaulting to    8 iterations.
  Pulay mixer: Number of initial linear mixing iterations not set.
  Defaulting to    0 iterations.
  Work space size for distributed Hartree potential not set.
  Defaulting to   0.200000E+03 MB.
  Mixing parameter for charge density mixing has not been set.
  Using default: charge_mix_param =     0.0500.
  The mixing parameter will be adjusted in iteration number     2 of the first full s.c.f. cycle only.
  Algorithm-dependent basis array size parameters:
  | n_max_pulay                         :        8
  Maximum number of self-consistency iterations not provided.
  Presetting  1000 iterations.
  Presetting      1001 iterations before the initial mixing cycle
  is restarted anyway using the sc_init_iter criterion / keyword.
  Presetting a factor      1.000 between actual scf density residual
  and density convergence criterion sc_accuracy_rho below which sc_init_iter
  takes no effect.
  Geometry relaxation not requested: no relaxation will be performed.
  Handling of forces: Unphysical translation and rotation will be removed from forces.
  No accuracy limit for integral partition fn. given. Defaulting to  0.1000E-14.
  No threshold value for u(r) in integrations given. Defaulting to  0.1000E-05.
  No accuracy for occupation numbers given. Defaulting to  0.1000E-12.
  No threshold value for occupation numbers given. Defaulting to  0.0000E+00.
  No accuracy for fermi level given. Defaulting to  0.1000E-19.
  Maximum # of iterations to find E_F not set. Defaulting to  200.
  Preferred method for the eigenvalue solver ('KS_method') not specified in 'control.in'.
  Defaulting to serial version, LAPACK (via ELSI), since more k-points than CPUs available.
  Will not use alltoall communication since running on < 1024 CPUs.
  Threshold for basis singularities not set.
  Default threshold for basis singularities:  0.1000E-04
  partition_type (choice of integration weights) for integrals was not specified.
  | Using a version of the partition function of Stratmann and coworkers ('stratmann_sparse').
  | At each grid point, the set of atoms used to build the partition table is smoothly restricted to
  | only those atoms whose free-atom density would be non-zero at that grid point.
  Partitioning for Hartree potential was not defined. Using partition_type for integrals.
  | Adjusted default value of keyword multip_moments_threshold to:       0.10000000E-11
  | This value may affect high angular momentum components of the Hartree potential in periodic systems.
  Angular momentum expansion for Kerker preconditioner not set explicitly.
  | Using default value of   0
  No explicit requirement for turning off preconditioner.
  | By default, it will be turned off when the charge convergence reaches
  | sc_accuracy_rho  =   0.100000E-05
  | sc_accuracy_eev  =   0.100000E-02
  | sc_accuracy_etot =   0.100000E-05
  No special mixing parameter while Kerker preconditioner is on.
  Using default: charge_mix_param =     0.0500.
  No q(lm)/r^(l+1) cutoff set for long-range Hartree potential.
  | Using default value of  0.100000E-09 .
  | Verify using the multipole_threshold keyword.
  Defaulting to new monopole extrapolation.
  Density update method: automatic selection selected.
  Using density matrix based charge density update.
 * Warning: DFT+U requires using density matrix based charge density update.
  Using density matrix based charge density update.
  Using packed matrix style: index .
  Defaulting to use time-reversal symmetry for k-point grid.
  Charge integration errors on the 3D integration grid will be compensated
  by explicit normalization and distribution of residual charges.
  Use the "compensate_multipole_errors" flag to change this behaviour.
  Set 'collect_eigenvectors' to be '.true.' for all serial calculations. This is mandatory.
  Set 'collect_eigenvectors' to be '.true.' for KS_method lapack_fast and serial.
 
  Consistency checks for the contents of geometry.in are next.
 

  Range separation radius for Ewald summation (hartree_convergence_parameter):      3.03029936 bohr.
  Number of empty states per atom not set in control.in - providing a guess from actual geometry.
  | Total number of empty states used during s.c.f. cycle:       88
  If you use a very high smearing, use empty_states (per atom!) in control.in to increase this value.

  Structure-dependent array size parameters: 
  | Maximum number of distinct radial functions  :       31
  | Maximum number of basis functions            :      492
  | Number of Kohn-Sham states (occupied + empty):      240
------------------------------------------------------------

------------------------------------------------------------
          Preparing all fixed parts of the calculation.
------------------------------------------------------------
  Determining machine precision:
    2.225073858507201E-308
  Setting up grids for atomic and cluster calculations.

  Creating wave function, potential, and density for free atoms.

  Species: Li

  List of occupied orbitals and eigenvalues:
    n    l              occ      energy [Ha]    energy [eV]
    1    0           2.0000        -1.849178       -50.3187
    2    0           1.0000        -0.083380        -2.2689


  Species: Fe

  List of occupied orbitals and eigenvalues:
    n    l              occ      energy [Ha]    energy [eV]
    1    0           2.0000      -258.761464     -7041.2577
    2    0           2.0000       -30.084042      -818.6284
    3    0           2.0000        -3.428472       -93.2935
    4    0           2.0000        -0.194146        -5.2830
    2    1           6.0000       -25.669194      -698.4943
    3    1           6.0000        -2.193937       -59.7001
    3    2           6.0000        -0.277182        -7.5425


  Species: P

  List of occupied orbitals and eigenvalues:
    n    l              occ      energy [Ha]    energy [eV]
    1    0           2.0000       -76.485822     -2081.2851
    2    0           2.0000        -6.358414      -173.0212
    3    0           2.0000        -0.510621       -13.8947
    2    1           6.0000        -4.570565      -124.3714
    3    1           3.0000        -0.201132        -5.4731


  Species: O

  List of occupied orbitals and eigenvalues:
    n    l              occ      energy [Ha]    energy [eV]
    1    0           2.0000       -18.786109      -511.1960
    2    0           2.0000        -0.872635       -23.7456
    2    1           4.0000        -0.337687        -9.1889


  Adding cutoff potential to free-atom effective potential.
  Creating fixed part of basis set: Ionic, confined, hydrogenic.
 
  Li                   hydrogenic:
 
  List of hydrogenic basis orbitals: 
    n    l      effective z      eigenvalue [eV]  inner max. [A]     outer max. [A]     outer radius [A]   
    2    1         1.600000        -8.6069           1.303334           1.303334           4.591005
    2    0         2.000000       -13.5631           0.203259           1.385485           4.591005
    3    2         2.600000        -9.9241           1.769240           1.769240           4.591005
 
 
  Fe                   ion:

  List of free ionic orbitals and eigenvalues:
    n    l      energy [Ha]    energy [eV]
    1    0      -259.738870     -7067.8543
    2    0       -31.072370      -845.5222
    3    0        -4.377998      -119.1314
    4    0        -0.834552       -22.7093
    2    1       -26.655733      -725.3394
    3    1        -3.135976       -85.3342
    3    2        -1.182709       -32.1831


  List of ionic basis orbitals and eigenvalues:
    n    l      energy [Ha]    energy [eV]    outer radius [A]
    4    0        -0.834492       -22.7077       4.554938

 
  Fe                   hydrogenic:
 
  List of hydrogenic basis orbitals: 
    n    l      effective z      eigenvalue [eV]  inner max. [A]     outer max. [A]     outer radius [A]   
    4    3         9.400000       -75.1370           0.896093           0.896093           3.791786
    2    1         2.200000       -16.4552           0.964292           0.964292           4.554938
    3    2         3.100000       -14.4291           1.515830           1.515830           4.610964
 
 
  P                    ion:

  List of free ionic orbitals and eigenvalues:
    n    l      energy [Ha]    energy [eV]
    1    0       -77.432579     -2107.0477
    2    0        -7.277768      -198.0382
    3    0        -1.273472       -34.6529
    2    1        -5.491497      -149.4312
    3    1        -0.917378       -24.9631


  List of ionic basis orbitals and eigenvalues:
    n    l      energy [Ha]    energy [eV]    outer radius [A]
    3    2        -0.460093       -12.5198       4.554583
    3    1        -0.917353       -24.9625       4.337222
    3    0        -1.273453       -34.6524       3.885335

 
  P                    hydrogenic:
 
  List of hydrogenic basis orbitals: 
    n    l      effective z      eigenvalue [eV]  inner max. [A]     outer max. [A]     outer radius [A]   
    4    3         6.200000       -32.6778           1.357793           1.357793           4.554583
 
 
  O                    hydrogenic:
 
  List of hydrogenic basis orbitals: 
    n    l      effective z      eigenvalue [eV]  inner max. [A]     outer max. [A]     outer radius [A]   
    2    1         1.800000       -10.9749           1.164242           1.164242           4.578029
    3    2         7.600000       -87.3180           0.624125           0.624125           3.251020
    3    0         6.400000       -61.9207           0.061167           1.081902           4.001998
 
  Creating atomic-like basis functions for current effective potential.

  Species Li                  :

  List of atomic basis orbitals and eigenvalues:
    n    l      energy [Ha]    energy [eV]    outer radius [A]
    1    0        -1.849178       -50.3187       4.062706
    2    0        -0.083380        -2.2689       4.591005


  Species Fe                  :

  List of atomic basis orbitals and eigenvalues:
    n    l      energy [Ha]    energy [eV]    outer radius [A]
    1    0      -258.761464     -7041.2577       0.409790
    2    0       -30.084042      -818.6284       1.216422
    3    0        -3.428472       -93.2935       3.438507
    4    0        -0.194146        -5.2830       4.610964
    2    1       -25.669194      -698.4943       1.277383
    3    1        -2.193937       -59.7001       3.981813
    3    2        -0.277182        -7.5425       4.499593


  Species P                   :

  List of atomic basis orbitals and eigenvalues:
    n    l      energy [Ha]    energy [eV]    outer radius [A]
    1    0       -76.485822     -2081.2851       0.736837
    2    0        -6.358414      -173.0212       2.532824
    3    0        -0.510621       -13.8947       4.499242
    2    1        -4.570565      -124.3714       2.862183
    3    1        -0.201132        -5.4731       4.554583


  Species O                   :

  List of atomic basis orbitals and eigenvalues:
    n    l      energy [Ha]    energy [eV]    outer radius [A]
    1    0       -18.786109      -511.1960       1.433179
    2    0        -0.872635       -23.7456       4.413171
    2    1        -0.337687        -9.1889       4.522403

  Assembling full basis from fixed parts.
 * Warning - Since '+U' treatment was requested,
 * the basis-dependent cutoff is turned off automatically.
  | Species Li :   atomic orbital   1 s accepted.
  | Species Li :   atomic orbital   2 s accepted.
  | Species Li :    hydro orbital   2 s accepted.
  | Species Li :    hydro orbital   2 p accepted.
  | Species Li :    hydro orbital   3 d accepted.
 * Warning - Since '+U' treatment was requested,
 * the basis-dependent cutoff is turned off automatically.
  | Species Fe :   atomic orbital   1 s accepted.
  | Species Fe :   atomic orbital   2 s accepted.
  | Species Fe :   atomic orbital   3 s accepted.
  | Species Fe :   atomic orbital   4 s accepted.
  | Species Fe :    ionic orbital   4 s accepted.
  | Species Fe :   atomic orbital   2 p accepted.
  | Species Fe :   atomic orbital   3 p accepted.
  | Species Fe :    hydro orbital   2 p accepted.
  | Species Fe :   atomic orbital   3 d accepted.
  | Species Fe :    hydro orbital   3 d accepted.
  | Species Fe :    hydro orbital   4 f accepted.
 * Warning - Since '+U' treatment was requested,
 * the basis-dependent cutoff is turned off automatically.
  | Species P :   atomic orbital   1 s accepted.
  | Species P :   atomic orbital   2 s accepted.
  | Species P :   atomic orbital   3 s accepted.
  | Species P :    ionic orbital   3 s accepted.
  | Species P :   atomic orbital   2 p accepted.
  | Species P :   atomic orbital   3 p accepted.
  | Species P :    ionic orbital   3 p accepted.
  | Species P :    ionic orbital   3 d accepted.
  | Species P :    hydro orbital   4 f accepted.
 * Warning - Since '+U' treatment was requested,
 * the basis-dependent cutoff is turned off automatically.
  | Species O :   atomic orbital   1 s accepted.
  | Species O :   atomic orbital   2 s accepted.
  | Species O :    hydro orbital   3 s accepted.
  | Species O :   atomic orbital   2 p accepted.
  | Species O :    hydro orbital   2 p accepted.
  | Species O :    hydro orbital   3 d accepted.
 
  Basis size parameters after reduction:
  | Total number of radial functions:       31
  | Total number of basis functions :      492
 
  Per-task memory consumption for arrays in subroutine allocate_ext:
  |          11.102200MB.
  Testing on-site integration grid accuracy.
  |  Species  Function  <phi|h_atom|phi> (log., in eV)  <phi|h_atom|phi> (rad., in eV)
           1        1                -50.3186999132                -50.3186979427
           1        2                 -2.3071316168                 -2.3037320941
           1        3                 15.7362313817                 15.7331874732
           1        4                  0.3262086529                  0.3282071330
           1        5                  6.2738034359                  6.2759396895
           2        6              -7041.2577030496              -7041.2519560668
           2        7               -818.6284329791               -818.6283709976
           2        8                -93.2934736379                -93.2934724211
           2        9                 -5.2930696844                 -5.3068968178
           2       10                  7.1071043190                  6.9971523260 ***
           2       11               -698.4943178612               -698.4943174879
           2       12                -59.7000660024                -59.7000658913
           2       13                  1.9401338083                  1.9363784399
           2       14                 -7.5426235719                 -7.5427918004
           2       15                  7.1731035101                  7.1394720912 ***
           2       16                 40.2111838268                 40.2112200346
           3       17              -2081.2851194197              -2081.2842153296
           3       18               -173.0212409578               -173.0212353627
           3       19                -13.8948940790                -13.8951694077
           3       20                  6.0986398359                  6.1045326113
           3       21               -124.3714114519               -124.3714114195
           3       22                 -5.4768307239                 -5.4826893875
           3       23                  6.9100777494                  6.8298756142 ***
           3       24                  5.2642353314                  5.2564284336
           3       25                 19.3705556486                 19.3659772111
           4       26               -511.1960429777               -511.1959399133
           4       27                -23.7455964041                -23.7455972542
           4       28                 17.3746964700                 17.3748057881
           4       29                 -9.1890598667                 -9.1892026751
           4       30                  8.1915160719                  8.1720639763
           4       31                 45.8005976646                 45.8005620229
 * Note: Onsite integrals marked "***" above are less accurate than
 * onsite_accuracy_threshold =    0.03000 eV. Usually, this is harmless.
 * When in doubt, tighten the "radial" and/or "radial_multiplier" flags to check.

  Preparing densities etc. for the partition functions (integrals / Hartree potential).

  Preparations completed.
  max(cpu_time)          :      0.789 s.
  Wall clock time (cpu1) :      0.792 s.
------------------------------------------------------------

------------------------------------------------------------
          Begin self-consistency loop: Initialization.

          Date     :  20240521, Time     :  181424.210
------------------------------------------------------------

  Initializing index lists of integration centers etc. from given atomic structure:
  Mapping all atomic coordinates to central unit cell.

  Initializing the k-points
  Using symmetry for reducing the k-points
  | k-points reduced from:      126 to       64
  | Number of k-points                             :        64
  The eigenvectors in the calculations are COMPLEX.
  | K-points in task   0:         0
  | K-points in task   1:         1
  | K-points in task   2:         1
  | K-points in task   3:         1
  | K-points in task   4:         1
  | K-points in task   5:         1
  | K-points in task   6:         1
  | K-points in task   7:         1
  | K-points in task   8:         1
  | K-points in task   9:         1
  | K-points in task  10:         1
  | K-points in task  11:         1
  | K-points in task  12:         1
  | K-points in task  13:         1
  | K-points in task  14:         1
  | K-points in task  15:         1
  | K-points in task  16:         1
  | K-points in task  17:         1
  | K-points in task  18:         1
  | K-points in task  19:         1
  | K-points in task  20:         1
  | K-points in task  21:         1
  | K-points in task  22:         1
  | K-points in task  23:         1
  | K-points in task  24:         1
  | K-points in task  25:         1
  | K-points in task  26:         1
  | K-points in task  27:         1
  | K-points in task  28:         1
  | K-points in task  29:         1
  | K-points in task  30:         1
  | K-points in task  31:         1
  | K-points in task  32:         1
  | K-points in task  33:         1
  | K-points in task  34:         1
  | K-points in task  35:         1
  | K-points in task  36:         1
  | K-points in task  37:         1
  | K-points in task  38:         1
  | K-points in task  39:         1
  | K-points in task  40:         1
  | K-points in task  41:         1
  | K-points in task  42:         1
  | K-points in task  43:         1
  | K-points in task  44:         1
  | K-points in task  45:         1
  | K-points in task  46:         1
  | K-points in task  47:         1
  | K-points in task  48:         1
  | K-points in task  49:         1
  | K-points in task  50:         1
  | K-points in task  51:         1
  | K-points in task  52:         1
  | K-points in task  53:         1
  | K-points in task  54:         1
  | K-points in task  55:         1
  | K-points in task  56:         1
  | K-points in task  57:         1
  | K-points in task  58:         1
  | K-points in task  59:         1
  | K-points in task  60:         1
  | K-points in task  61:         1
  | K-points in task  62:         1
  | K-points in task  63:         1
  | K-points in task  64:         1
  | K-points in task  65:         0
  | K-points in task  66:         0
  | K-points in task  67:         0
  | K-points in task  68:         0
  | K-points in task  69:         0
  | K-points in task  70:         0
  | K-points in task  71:         0
  | K-points in task  72:         0
  | K-points in task  73:         0
  | K-points in task  74:         0
  | K-points in task  75:         0
  | K-points in task  76:         0
  | K-points in task  77:         0
  | K-points in task  78:         0
  | K-points in task  79:         0
  | Number of basis functions in the Hamiltonian integrals :      5133
  | Number of basis functions in a single unit cell        :       492
  | Number of centers in hartree potential         :      1757
  | Number of centers in hartree multipole         :      1200
  | Number of centers in electron density summation:       909
  | Number of centers in basis integrals           :       977
  | Number of centers in integrals                 :       391
  | Number of centers in hamiltonian               :       923
  | Consuming         64 KiB for k_phase.
  | Number of super-cells (origin) [n_cells]                     :         315
  | Number of super-cells (after PM_index) [n_cells]             :          64
  | Number of super-cells in hamiltonian [n_cells_in_hamiltonian]:          64
  | Size of matrix packed + index [n_hamiltonian_matrix_size] :     1046249
  | Estimated reciprocal-space cutoff momentum G_max:         3.11736995 bohr^-1 .
  | Reciprocal lattice points for long-range Hartree potential:    1004
  Partitioning the integration grid into batches with parallel hashing+maxmin method.
  | Number of batches:     2357
  | Maximal batch size:     121
  | Minimal batch size:      50
  | Average batch size:      76.134
  | Standard deviation of batch sizes:      16.233

  Integration load balanced across    80 MPI tasks.
  Work distribution over tasks is as follows:
  Task     0 has       2251 integration points.
  Task     1 has       2211 integration points.
  Task     2 has       2218 integration points.
  Task     3 has       2250 integration points.
  Task     4 has       2206 integration points.
  Task     5 has       2213 integration points.
  Task     6 has       2248 integration points.
  Task     7 has       2217 integration points.
  Task     8 has       2251 integration points.
  Task     9 has       2208 integration points.
  Task    10 has       2246 integration points.
  Task    11 has       2251 integration points.
  Task    12 has       2255 integration points.
  Task    13 has       2245 integration points.
  Task    14 has       2254 integration points.
  Task    15 has       2248 integration points.
  Task    16 has       2236 integration points.
  Task    17 has       2249 integration points.
  Task    18 has       2257 integration points.
  Task    19 has       2223 integration points.
  Task    20 has       2222 integration points.
  Task    21 has       2262 integration points.
  Task    22 has       2247 integration points.
  Task    23 has       2256 integration points.
  Task    24 has       2247 integration points.
  Task    25 has       2241 integration points.
  Task    26 has       2236 integration points.
  Task    27 has       2311 integration points.
  Task    28 has       2241 integration points.
  Task    29 has       2243 integration points.
  Task    30 has       2250 integration points.
  Task    31 has       2245 integration points.
  Task    32 has       2253 integration points.
  Task    33 has       2208 integration points.
  Task    34 has       2300 integration points.
  Task    35 has       2227 integration points.
  Task    36 has       2208 integration points.
  Task    37 has       2310 integration points.
  Task    38 has       2242 integration points.
  Task    39 has       2250 integration points.
  Task    40 has       2247 integration points.
  Task    41 has       2224 integration points.
  Task    42 has       2219 integration points.
  Task    43 has       2238 integration points.
  Task    44 has       2245 integration points.
  Task    45 has       2244 integration points.
  Task    46 has       2243 integration points.
  Task    47 has       2234 integration points.
  Task    48 has       2223 integration points.
  Task    49 has       2245 integration points.
  Task    50 has       2205 integration points.
  Task    51 has       2221 integration points.
  Task    52 has       2301 integration points.
  Task    53 has       2210 integration points.
  Task    54 has       2296 integration points.
  Task    55 has       2247 integration points.
  Task    56 has       2211 integration points.
  Task    57 has       2240 integration points.
  Task    58 has       2258 integration points.
  Task    59 has       2248 integration points.
  Task    60 has       2254 integration points.
  Task    61 has       2314 integration points.
  Task    62 has       2204 integration points.
  Task    63 has       2222 integration points.
  Task    64 has       2251 integration points.
  Task    65 has       2208 integration points.
  Task    66 has       2225 integration points.
  Task    67 has       2246 integration points.
  Task    68 has       2224 integration points.
  Task    69 has       2303 integration points.
  Task    70 has       2250 integration points.
  Task    71 has       2301 integration points.
  Task    72 has       2245 integration points.
  Task    73 has       2258 integration points.
  Task    74 has       2213 integration points.
  Task    75 has       2252 integration points.
  Task    76 has       2241 integration points.
  Task    77 has       2250 integration points.
  Task    78 has       2204 integration points.
  Task    79 has       2248 integration points.
  Initializing partition tables, free-atom densities, potentials, etc. across the integration grid (initialize_grid_storage).
  | initialize_grid_storage: Actual outermost partition radius vs. multipole_radius_free
  | (-- VB: in principle, multipole_radius_free should be larger, hence this output)
  | Species        1: Confinement radius =              4.999999999999999 AA, multipole_radius_free =              5.001180127821857 AA.
  | Species        1: outer_partition_radius set to              5.001180127821857 AA .
  | Species        2: Confinement radius =              4.999999999999999 AA, multipole_radius_free =              5.022921912105459 AA.
  | Species        2: outer_partition_radius set to              5.022921912105459 AA .
  | Species        3: Confinement radius =              4.999999999999999 AA, multipole_radius_free =              5.022530438398565 AA.
  | Species        3: outer_partition_radius set to              5.022530438398565 AA .
  | Species        4: Confinement radius =              4.999999999999999 AA, multipole_radius_free =              5.048384829883283 AA.
  | Species        4: outer_partition_radius set to              5.048384829883283 AA .
  | The sparse table of interatomic distances needs       2836.54 kbyte instead of      7636.23 kbyte of memory.
  | Net number of integration points:   179448
  | of which are non-zero points    :   147183
  | Numerical average free-atom electrostatic potential    :    -14.92447139 eV
  Renormalizing the initial density to the exact electron count on the 3D integration grid.
  | Initial density: Formal number of electrons (from input files) :     304.0000000000
  | Integrated number of electrons on 3D grid     :     303.9990430941
  | Charge integration error                      :      -0.0009569059
  | Normalization factor for density and gradient :       1.0000031477
  Renormalizing the free-atom superposition density to the exact electron count on the 3D integration grid.
  | Formal number of electrons (from input files) :     304.0000000000
  | Integrated number of electrons on 3D grid     :     303.9990430941
  | Charge integration error                      :      -0.0009569059
  | Normalization factor for density and gradient :       1.0000031477
  Obtaining max. number of non-zero basis functions in each batch (get_n_compute_maxes).
  | Maximal number of non-zero basis functions:      781 in task     0
  | Maximal number of non-zero basis functions:      747 in task     1
  | Maximal number of non-zero basis functions:      765 in task     2
  | Maximal number of non-zero basis functions:      778 in task     3
  | Maximal number of non-zero basis functions:      798 in task     4
  | Maximal number of non-zero basis functions:      784 in task     5
  | Maximal number of non-zero basis functions:      774 in task     6
  | Maximal number of non-zero basis functions:      765 in task     7
  | Maximal number of non-zero basis functions:      770 in task     8
  | Maximal number of non-zero basis functions:      741 in task     9
  | Maximal number of non-zero basis functions:      771 in task    10
  | Maximal number of non-zero basis functions:      746 in task    11
  | Maximal number of non-zero basis functions:      761 in task    12
  | Maximal number of non-zero basis functions:      737 in task    13
  | Maximal number of non-zero basis functions:      769 in task    14
  | Maximal number of non-zero basis functions:      745 in task    15
  | Maximal number of non-zero basis functions:      757 in task    16
  | Maximal number of non-zero basis functions:      764 in task    17
  | Maximal number of non-zero basis functions:      776 in task    18
  | Maximal number of non-zero basis functions:      719 in task    19
  | Maximal number of non-zero basis functions:      758 in task    20
  | Maximal number of non-zero basis functions:      763 in task    21
  | Maximal number of non-zero basis functions:      751 in task    22
  | Maximal number of non-zero basis functions:      771 in task    23
  | Maximal number of non-zero basis functions:      753 in task    24
  | Maximal number of non-zero basis functions:      752 in task    25
  | Maximal number of non-zero basis functions:      766 in task    26
  | Maximal number of non-zero basis functions:      777 in task    27
  | Maximal number of non-zero basis functions:      764 in task    28
  | Maximal number of non-zero basis functions:      735 in task    29
  | Maximal number of non-zero basis functions:      747 in task    30
  | Maximal number of non-zero basis functions:      762 in task    31
  | Maximal number of non-zero basis functions:      798 in task    32
  | Maximal number of non-zero basis functions:      745 in task    33
  | Maximal number of non-zero basis functions:      771 in task    34
  | Maximal number of non-zero basis functions:      771 in task    35
  | Maximal number of non-zero basis functions:      739 in task    36
  | Maximal number of non-zero basis functions:      778 in task    37
  | Maximal number of non-zero basis functions:      727 in task    38
  | Maximal number of non-zero basis functions:      750 in task    39
  | Maximal number of non-zero basis functions:      732 in task    40
  | Maximal number of non-zero basis functions:      767 in task    41
  | Maximal number of non-zero basis functions:      751 in task    42
  | Maximal number of non-zero basis functions:      776 in task    43
  | Maximal number of non-zero basis functions:      727 in task    44
  | Maximal number of non-zero basis functions:      750 in task    45
  | Maximal number of non-zero basis functions:      762 in task    46
  | Maximal number of non-zero basis functions:      788 in task    47
  | Maximal number of non-zero basis functions:      784 in task    48
  | Maximal number of non-zero basis functions:      769 in task    49
  | Maximal number of non-zero basis functions:      793 in task    50
  | Maximal number of non-zero basis functions:      752 in task    51
  | Maximal number of non-zero basis functions:      793 in task    52
  | Maximal number of non-zero basis functions:      743 in task    53
  | Maximal number of non-zero basis functions:      745 in task    54
  | Maximal number of non-zero basis functions:      731 in task    55
  | Maximal number of non-zero basis functions:      738 in task    56
  | Maximal number of non-zero basis functions:      742 in task    57
  | Maximal number of non-zero basis functions:      739 in task    58
  | Maximal number of non-zero basis functions:      799 in task    59
  | Maximal number of non-zero basis functions:      749 in task    60
  | Maximal number of non-zero basis functions:      749 in task    61
  | Maximal number of non-zero basis functions:      748 in task    62
[...]
    141       2.00000          -0.283708           -7.72010
    142       2.00000          -0.282885           -7.69769
    143       2.00000          -0.282304           -7.68189
    144       2.00000          -0.282200           -7.67904
    145       2.00000          -0.280751           -7.63963
    146       2.00000          -0.278593           -7.58091
    147       2.00000          -0.277173           -7.54226
    148       2.00000          -0.275496           -7.49662
    149       2.00000          -0.274170           -7.46054
    150       2.00000          -0.273711           -7.44805
    151       2.00000          -0.272715           -7.42094
    152       2.00000          -0.269990           -7.34679
    153       0.00000          -0.195979           -5.33285
    154       0.00000          -0.195264           -5.31340
    155       0.00000          -0.194765           -5.29982
    156       0.00000          -0.186564           -5.07668
    157       0.00000          -0.182651           -4.97018
    158       0.00000          -0.177902           -4.84097
    159       0.00000          -0.168437           -4.58341
    160       0.00000          -0.168157           -4.57579
    161       0.00000          -0.123084           -3.34928
    162       0.00000          -0.056374           -1.53401
    163       0.00000          -0.041270           -1.12300
    164       0.00000          -0.015333           -0.41722
    165       0.00000          -0.007323           -0.19928
    166       0.00000           0.010235            0.27852
    167       0.00000           0.011670            0.31757
    168       0.00000           0.012172            0.33122
    169       0.00000           0.018073            0.49179
    170       0.00000           0.025617            0.69706
    171       0.00000           0.039918            1.08621
    172       0.00000           0.040430            1.10014
    173       0.00000           0.042212            1.14864
    174       0.00000           0.047264            1.28612
    175       0.00000           0.060541            1.64740
    176       0.00000           0.067991            1.85013
    177       0.00000           0.078416            2.13380
    178       0.00000           0.094250            2.56468
    179       0.00000           0.100627            2.73819
    180       0.00000           0.110552            3.00828
    181       0.00000           0.111037            3.02148
    182       0.00000           0.114244            3.10874
    183       0.00000           0.127044            3.45703
    184       0.00000           0.131281            3.57233
    185       0.00000           0.144203            3.92396
    186       0.00000           0.147965            4.02633
    187       0.00000           0.158484            4.31258
    188       0.00000           0.163995            4.46252
    189       0.00000           0.165164            4.49435
    190       0.00000           0.181418            4.93662
    191       0.00000           0.186149            5.06538
    192       0.00000           0.194261            5.28611
    193       0.00000           0.196154            5.33761
    194       0.00000           0.206277            5.61310
    195       0.00000           0.211168            5.74618
    196       0.00000           0.217363            5.91475
    197       0.00000           0.220874            6.01028
    198       0.00000           0.239354            6.51315
    199       0.00000           0.243079            6.61451
    200       0.00000           0.244128            6.64305
    201       0.00000           0.251486            6.84328
    202       0.00000           0.265452            7.22331
    203       0.00000           0.273771            7.44969
    204       0.00000           0.278834            7.58747
    205       0.00000           0.283075            7.70285
    206       0.00000           0.287196            7.81499
    207       0.00000           0.287883            7.83371
    208       0.00000           0.297057            8.08333
    209       0.00000           0.297374            8.09195
    210       0.00000           0.299476            8.14915
    211       0.00000           0.304192            8.27749
    212       0.00000           0.308416            8.39244
    213       0.00000           0.316433            8.61057
    214       0.00000           0.329118            8.95575
    215       0.00000           0.332399            9.04505
    216       0.00000           0.336050            9.14438
    217       0.00000           0.360684            9.81470
    218       0.00000           0.365501            9.94578
    219       0.00000           0.375850           10.22739
    220       0.00000           0.376569           10.24696
    221       0.00000           0.394495           10.73475
    222       0.00000           0.398096           10.83276
    223       0.00000           0.424962           11.56380
    224       0.00000           0.425483           11.57797
    225       0.00000           0.468566           12.75033
    226       0.00000           0.485214           13.20333
    227       0.00000           0.486065           13.22649
    228       0.00000           0.487648           13.26957
    229       0.00000           0.514028           13.98741
    230       0.00000           0.527937           14.36591
    231       0.00000           0.549792           14.96060
    232       0.00000           0.555602           15.11870
    233       0.00000           0.561858           15.28895
    234       0.00000           0.577385           15.71145
    235       0.00000           0.595812           16.21287
    236       0.00000           0.603559           16.42368
    237       0.00000           0.604303           16.44392
    238       0.00000           0.607711           16.53666
    239       0.00000           0.608891           16.56877
    240       0.00000           0.628738           17.10883

  What follows are estimated values for band gap, HOMO, LUMO, etc.
  | They are estimated on a discrete k-point grid and not necessarily exact.
  | For converged numbers, create a DOS and/or band structure plot on a denser k-grid.

  Highest occupied state (VBM) at     -7.27550497 eV (relative to internal zero)
  | Occupation number:      2.00000000
  | K-point:       4 at    0.000000    0.000000    0.428571 (in units of recip. lattice)

  Lowest unoccupied state (CBM) at    -5.35555521 eV (relative to internal zero)
  | Occupation number:      0.00000000
  | K-point:       5 at    0.000000    0.166667    0.000000 (in units of recip. lattice)

  ESTIMATED overall HOMO-LUMO gap:      1.91994976 eV between HOMO at k-point 4 and LUMO at k-point 5
  | This appears to be an indirect band gap.
  | Smallest direct gap :      1.95439238 eV for k_point 10 at    0.000000    0.333333    0.000000 (in units of recip. lattice)
  The gap value is above 0.2 eV. Unless you are using a very sparse k-point grid,
  this system is most likely an insulator or a semiconductor.

  Self-consistency cycle converged.

  End self-consistency iteration #    25       :  max(cpu_time)    wall_clock(cpu1)
  | Time for this iteration                    :        1.282 s           1.312 s
  | Charge density & force component update    :        0.000 s           0.000 s
  | Density mixing                             :        0.012 s           0.006 s
  | Hartree multipole update                   :        0.002 s           0.002 s
  | Hartree multipole summation                :        0.647 s           0.649 s
  | Integration                                :        0.457 s           0.458 s
  | Solution of K.-S. eqns.                    :        0.133 s           0.134 s
  | Total energy evaluation                    :        0.005 s           0.028 s

  Partial memory accounting:
  | Current value for overall tracked memory usage:
  |   Minimum:       17.184 MB (on task  0)
  |   Maximum:       18.986 MB (on task  1)
  |   Average:       18.626 MB
  | Peak value for overall tracked memory usage:
  |   Minimum:       34.728 MB (on task 65 after allocating d_wave)
  |   Maximum:       38.609 MB (on task 59 after allocating d_wave)
  |   Average:       37.037 MB
  | Largest tracked array allocation so far:
  |   Minimum:        7.982 MB (overlap_matrix on task  0)
  |   Maximum:        7.982 MB (overlap_matrix on task  0)
  |   Average:        7.982 MB
  Note:  These values currently only include a subset of arrays which are explicitly tracked.
  The "true" memory usage will be greater.
------------------------------------------------------------
  Removing unitary transformations (pure translations, rotations) from forces on atoms.
  Atomic forces before filtering:
  | Net force on center of mass :  -0.615038E-07  0.427797E-07  0.172580E-07 eV/A
  Atomic forces after filtering:
  | Net force on center of mass :  -0.278760E-17 -0.653343E-19 -0.278760E-17 eV/A

  Energy and forces in a compact form:
  | Total energy uncorrected      :         -0.210405876610839E+06 eV
  | Total energy corrected        :         -0.210405876610839E+06 eV  <-- do not rely on this value for anything but (periodic) metals
  | Electronic free energy        :         -0.210405876610839E+06 eV
  Total atomic forces (unitary forces cleaned) [eV/Ang]:
  |    1         -0.160436641328385E-08         -0.269759558671009E-08         -0.646991682989634E-08
  |    2          0.235179005533554E-08         -0.103429233635466E-07          0.162618024156684E-08
  |    3          0.139758254963041E-08         -0.296502422408559E-08          0.855851191057049E-09
  |    4         -0.361137100941695E-08         -0.112749618396695E-07         -0.473872581181608E-08
  |    5         -0.544347226123092E-03          0.669351032210034E-07          0.334313256060855E-02
  |    6         -0.544369309365915E-03         -0.401908996006642E-07         -0.334309400898460E-02
  |    7          0.544391318345238E-03         -0.537325068849906E-07         -0.334314279812819E-02
  |    8          0.544385510671679E-03         -0.135242028469232E-07          0.334317736628294E-02
  |    9          0.621998235330090E-02         -0.139847235675870E-07          0.247148465863478E-02
  |   10          0.622002218360884E-02         -0.268999705949401E-07         -0.247149004828574E-02
  |   11         -0.622000531815180E-02          0.511628405286992E-07         -0.247149422420238E-02
  |   12         -0.622002399666057E-02          0.155534898870871E-08          0.247148954917339E-02
  |   13         -0.217343542862850E-02          0.136708814962310E-07          0.848625905044333E-02
  |   14         -0.217343799068338E-02          0.224245423776699E-07         -0.848626734073380E-02
  |   15          0.217343474233904E-02         -0.457695192966952E-07         -0.848625950768679E-02
  |   16          0.217343217747858E-02          0.184118554049041E-07          0.848626263551118E-02
  |   17          0.938298047236801E-02          0.221934149336252E-07          0.609269249506454E-03
  |   18          0.938299614599898E-02          0.779988194643607E-08         -0.609283726538004E-03
  |   19         -0.938298934848988E-02          0.140608168845453E-07         -0.609272436105770E-03
  |   20         -0.938299962851907E-02         -0.211010805143660E-07          0.609272266901363E-03
  |   21         -0.905138289033001E-02         -0.161551917129827E-03          0.864035213222130E-03
  |   22         -0.905135320617594E-02          0.161488542699136E-03         -0.864056976501131E-03
  |   23          0.905137898453292E-02         -0.161475317567600E-03         -0.864038971610888E-03
  |   24          0.905140020520296E-02          0.161546748076246E-03          0.863985210643811E-03
  |   25          0.905136702035063E-02          0.161567771237506E-03         -0.864043820454113E-03
  |   26          0.905134630466117E-02         -0.161495037272219E-03          0.864079316122585E-03
  |   27         -0.905137011825976E-02          0.161498750342723E-03          0.864031422780417E-03
  |   28         -0.905140149110621E-02         -0.161555271663427E-03         -0.864025913988343E-03

  ------------------------------------ 
  Start decomposition of the XC Energy 
  ------------------------------------ 
  X and C from original XC functional choice 
  Hartree-Fock Energy :          0.000000000 Ha              0.000000000 eV
  X Energy            :       -464.754686098 Ha         -12646.618461596 eV
  C Energy            :        -13.805521939 Ha           -375.667365718 eV
  Total XC Energy     :       -478.560208038 Ha         -13022.285827314 eV
  ------------------------------------ 
  LDA X and C from self-consistent density 
  X Energy LDA        :       -417.879329686 Ha         -11371.075114675 eV
  C Energy LDA        :        -23.388077251 Ha           -636.421962782 eV
  ------------------------------------ 
  End decomposition of the XC Energy 
  ------------------------------------ 

------------------------------------------------------------

------------------------------------------------------------------------------
  Final output of selected total energy values:

  The following output summarizes some interesting total energy values
  at the end of a run (AFTER all relaxation, molecular dynamics, etc.).

  | Total energy of the DFT / Hartree-Fock s.c.f. calculation      :        -210405.876610839 eV
  | Final zero-broadening corrected energy (caution - metals only) :        -210405.876610839 eV
  | For reference only, the value of 1 Hartree used in FHI-aims is :             27.211384500 eV
  | For reference only, the overall average (free atom contribution
  | + realspace contribution) of the electrostatic potential after
  | s.c.f. convergence is                                          :            -14.059831883 eV

  Before relying on these values, please be sure to understand exactly which
  total energy value is referred to by a given number. Different objects may
  all carry the same name 'total energy'. Definitions:

  Total energy of the DFT / Hartree-Fock s.c.f. calculation:
  | Note that this energy does not include ANY quantities calculated after the
  | s.c.f. cycle, in particular not ANY RPA, MP2, etc. many-body perturbation terms.

  Final zero-broadening corrected energy:
  | For metallic systems only, a broadening of the occupation numbers at the Fermi
  | level can be extrapolated back to zero broadening by an electron-gas inspired
  | formula. For all systems that are not real metals, this value can be
  | meaningless and should be avoided.

------------------------------------------------------------------------------
  Methods described in the following list of references were used in this FHI-aims run.
  If you publish the results, please make sure to cite these reference if they apply.
  FHI-aims is an academic code, and for our developers (often, Ph.D. students
  and postdocs), scientific credit in the community is essential.
  Thank you for helping us!

  For any use of FHI-aims, please cite:

    Volker Blum, Ralf Gehrke, Felix Hanke, Paula Havu, Ville Havu,
    Xinguo Ren, Karsten Reuter, and Matthias Scheffler
    'Ab initio molecular simulations with numeric atom-centered orbitals'
    Computer Physics Communications 180, 2175-2196 (2009)
    http://dx.doi.org/10.1016/j.cpc.2009.06.022


  The provided symmetry information was generated with SPGlib:

    Atsushi Togo, Yusuke Seto, Dimitar Pashov
    SPGlib 1.7.3 obtained from http://spglib.sourceforge.net
    Copyright (C) 2008 Atsushi Togo


 DFT+U infrastructure was used in your run
 please cite:

 Matthias Kick, Karsten Reuter and Harald Oberhofer,
 Intricacies Of DFT+U, not only in a Numeric Atom Centered Orbital Framework

 Journal of Chemical Theory and Computation
 https://


  The ELSI infrastructure was used in your run to solve the Kohn-Sham electronic structure.
  Please check out http://elsi-interchange.org to learn more.
  If scalability is important for your project, please acknowledge ELSI by citing:

    V. W-z. Yu, F. Corsetti, A. Garcia, W. P. Huhn, M. Jacquelin, W. Jia,
    B. Lange, L. Lin, J. Lu, W. Mi, A. Seifitokaldani, A. Vazquez-Mayagoitia,
    C. Yang, H. Yang, and V. Blum
    'ELSI: A unified software interface for Kohn-Sham electronic structure solvers'
    Computer Physics Communications 222, 267-285 (2018).
    http://dx.doi.org/10.1016/j.cpc.2017.09.007


  For the real-space grid partitioning and parallelization used in this calculation, please cite:

    Ville Havu, Volker Blum, Paula Havu, and Matthias Scheffler,
    'Efficient O(N) integration for all-electron electronic structure calculation'
    'using numerically tabulated basis functions'
    Journal of Computational Physics 228, 8367-8379 (2009).
    http://dx.doi.org/10.1016/j.jcp.2009.08.008

  Of course, there are many other important community references, e.g., those cited in the
  above references. Our list is limited to references that describe implementations in the
  FHI-aims code. The reason is purely practical (length of this list) - please credit others as well.

 * A warning was issued further up regarding the CPU load.
   Some CPUs do not participate in the eigenvalue solution.
   In corner cases, this may be the correct behavior. Otherwise,
   consider using a scalapack/elpa version of the code for a parallel treatment.

------------------------------------------------------------
          Leaving FHI-aims.
          Date     :  20240521, Time     :  181512.581

          Computational steps:
          | Number of self-consistency cycles          :           25
          | Number of SCF (re)initializations          :            1

          Detailed time accounting                     :  max(cpu_time)    wall_clock(cpu1)
          | Total time                                 :       49.147 s          49.503 s
          | Preparation time                           :        0.789 s           0.792 s
          | Boundary condition initalization           :        0.318 s           0.318 s
          | Grid partitioning                          :        0.096 s           0.096 s
          | Preloading free-atom quantities on grid    :        0.281 s           0.281 s
          | Free-atom superposition energy             :        0.025 s           0.025 s
          | Total time for integrations                :       12.285 s          12.319 s
          | Total time for solution of K.-S. equations :        3.699 s           3.649 s
          | Total time for density & force components  :       18.462 s          18.497 s
          | Total time for mixing & preconditioning    :        5.294 s           5.182 s
          | Total time for Hartree multipole update    :        0.058 s           0.067 s
          | Total time for Hartree multipole sum       :        6.857 s           6.877 s
          | Total time for total energy evaluation     :        0.112 s           0.098 s
          | Total time for scaled ZORA corrections     :        0.000 s           0.000 s

          Partial memory accounting:
          | Residual value for overall tracked memory usage across tasks:     0.000000 MB (should be 0.000000 MB)
          | Peak values for overall tracked memory usage:
          |   Minimum:       34.728 MB (on task 65 after allocating d_wave)
          |   Maximum:       38.609 MB (on task 59 after allocating d_wave)
          |   Average:       37.037 MB
          | Largest tracked array allocation:
          |   Minimum:        7.982 MB (overlap_matrix on task  0)
          |   Maximum:        7.982 MB (overlap_matrix on task  0)
          |   Average:        7.982 MB
          Note:  These values currently only include a subset of arrays which are explicitly tracked.
          The "true" memory usage will be greater.

          Have a nice day.
------------------------------------------------------------
