------------------------------------------------------------
          Invoking FHI-aims ...

          When using FHI-aims, please cite the following reference:

            Volker Blum, Ralf Gehrke, Felix Hanke, Paula Havu,
            Ville Havu, Xinguo Ren, Karsten Reuter, and Matthias Scheffler,
            'Ab Initio Molecular Simulations with Numeric Atom-Centered Orbitals',
            Computer Physics Communications 180, 2175-2196 (2009)

          In addition, many other developments in FHI-aims are likely important for
          your particular application. A partial list of references is given at the end of
          this file. Thank you for giving credit to the authors of these developments.

          For any questions about FHI-aims, please visit our slack channel at

            https://fhi-aims.slack.com

          and our main development and support site at

            https://aims-git.rz-berlin.mpg.de .

          The latter site, in particular, has a wiki to collect information, as well
          as an issue tracker to log discussions, suggest improvements, and report issues
          or bugs. https://aims-git.rz-berlin.mpg.de is also the main development site
          of the project and all new and updated code versions can be obtained there.
          Please send an email to aims-coordinators@fhi-berlin.mpg.de and we will add
          you to these sites. They are for you and everyone is welcome there.

------------------------------------------------------------



  Date     :  20240812, Time     :  150702.657
  Time zero on CPU 1             :   0.151059000000000E+00  s.
  Internal wall clock time zero  :           492707222.657  s.

  FHI-aims created a unique identifier for this run for later identification
  aims_uuid : 474C3155-357D-4E10-AC14-0E78580D2D85

  Build configuration of the current instance of FHI-aims
  -------------------------------------------------------
  FHI-aims version      : 210618
  Commit number         : f9e1e7592
  CMake host system     : Linux-3.10.0-1127.13.1.el7.x86_64
  CMake version         : 3.17.3
  Fortran compiler      : /apps/compilers/intel/2018.2/compilers_and_libraries_2018/linux/mpi/intel64/bin/mpif90 (Intel) version 18.0.2.20180210
  Fortran compiler flags: -O3 -ip -fp-model precise
  C compiler            : /apps/compilers/intel/2018.2/compilers_and_libraries_2018/linux/bin/intel64/icc (Intel) version 18.0.2.20180210
  C compiler flags      : -O3 -ip -fp-model precise -std=gnu99
  ELPA2 kernel          : AVX2
  Using MPI
  Using ScaLAPACK
  Using LibXC
  Using i-PI
  Using RLSY
  Linking against: /apps/compilers/intel/2018.2/compilers_and_libraries_2018/linux/mkl/lib/intel64/libmkl_intel_lp64.so
                   /apps/compilers/intel/2018.2/compilers_and_libraries_2018/linux/mkl/lib/intel64/libmkl_intel_thread.so
                   /apps/compilers/intel/2018.2/compilers_and_libraries_2018/linux/mkl/lib/intel64/libmkl_core.so
                   /apps/compilers/intel/2018.2/compilers_and_libraries_2018/linux/mkl/lib/intel64/libmkl_blacs_intelmpi_lp64.so
                   /apps/compilers/intel/2018.2/compilers_and_libraries_2018/linux/mkl/lib/intel64/libmkl_scalapack_lp64.so
                   /usr/lib64/libpthread.so

  Using      120 parallel tasks.
  Task        0 on host ccs0109 reporting.
  Task        1 on host ccs0109 reporting.
  Task        2 on host ccs0109 reporting.
  Task        3 on host ccs0109 reporting.
  Task        4 on host ccs0109 reporting.
  Task        5 on host ccs0109 reporting.
  Task        6 on host ccs0109 reporting.
  Task        7 on host ccs0109 reporting.
  Task        8 on host ccs0109 reporting.
  Task        9 on host ccs0109 reporting.
  Task       10 on host ccs0109 reporting.
  Task       11 on host ccs0109 reporting.
  Task       12 on host ccs0109 reporting.
  Task       13 on host ccs0109 reporting.
  Task       14 on host ccs0109 reporting.
  Task       15 on host ccs0109 reporting.
  Task       16 on host ccs0109 reporting.
  Task       17 on host ccs0109 reporting.
  Task       18 on host ccs0109 reporting.
  Task       19 on host ccs0109 reporting.
  Task       20 on host ccs0109 reporting.
  Task       21 on host ccs0109 reporting.
  Task       22 on host ccs0109 reporting.
  Task       23 on host ccs0109 reporting.
  Task       24 on host ccs0109 reporting.
  Task       25 on host ccs0109 reporting.
  Task       26 on host ccs0109 reporting.
  Task       27 on host ccs0109 reporting.
  Task       28 on host ccs0109 reporting.
  Task       29 on host ccs0109 reporting.
  Task       30 on host ccs0109 reporting.
  Task       31 on host ccs0109 reporting.
  Task       32 on host ccs0109 reporting.
  Task       33 on host ccs0109 reporting.
  Task       34 on host ccs0109 reporting.
  Task       35 on host ccs0109 reporting.
  Task       36 on host ccs0109 reporting.
  Task       37 on host ccs0109 reporting.
  Task       38 on host ccs0109 reporting.
  Task       39 on host ccs0109 reporting.
  Task       40 on host ccs0117 reporting.
  Task       41 on host ccs0117 reporting.
  Task       42 on host ccs0117 reporting.
  Task       43 on host ccs0117 reporting.
  Task       44 on host ccs0117 reporting.
  Task       45 on host ccs0117 reporting.
  Task       46 on host ccs0117 reporting.
  Task       47 on host ccs0117 reporting.
  Task       48 on host ccs0117 reporting.
  Task       49 on host ccs0117 reporting.
  Task       50 on host ccs0117 reporting.
  Task       51 on host ccs0117 reporting.
  Task       52 on host ccs0117 reporting.
  Task       53 on host ccs0117 reporting.
  Task       54 on host ccs0117 reporting.
  Task       55 on host ccs0117 reporting.
  Task       56 on host ccs0117 reporting.
  Task       57 on host ccs0117 reporting.
  Task       58 on host ccs0117 reporting.
  Task       59 on host ccs0117 reporting.
  Task       60 on host ccs0117 reporting.
  Task       61 on host ccs0117 reporting.
  Task       62 on host ccs0117 reporting.
  Task       63 on host ccs0117 reporting.
  Task       64 on host ccs0117 reporting.
  Task       65 on host ccs0117 reporting.
  Task       66 on host ccs0117 reporting.
  Task       67 on host ccs0117 reporting.
  Task       68 on host ccs0117 reporting.
  Task       69 on host ccs0117 reporting.
  Task       70 on host ccs0117 reporting.
  Task       71 on host ccs0117 reporting.
  Task       72 on host ccs0117 reporting.
  Task       73 on host ccs0117 reporting.
  Task       74 on host ccs0117 reporting.
  Task       75 on host ccs0117 reporting.
  Task       76 on host ccs0117 reporting.
  Task       77 on host ccs0117 reporting.
  Task       78 on host ccs0117 reporting.
  Task       79 on host ccs0117 reporting.
  Task       80 on host ccs0125 reporting.
  Task       81 on host ccs0125 reporting.
  Task       82 on host ccs0125 reporting.
  Task       83 on host ccs0125 reporting.
  Task       84 on host ccs0125 reporting.
  Task       85 on host ccs0125 reporting.
  Task       86 on host ccs0125 reporting.
  Task       87 on host ccs0125 reporting.
  Task       88 on host ccs0125 reporting.
  Task       89 on host ccs0125 reporting.
  Task       90 on host ccs0125 reporting.
  Task       91 on host ccs0125 reporting.
  Task       92 on host ccs0125 reporting.
  Task       93 on host ccs0125 reporting.
  Task       94 on host ccs0125 reporting.
  Task       95 on host ccs0125 reporting.
  Task       96 on host ccs0125 reporting.
  Task       97 on host ccs0125 reporting.
  Task       98 on host ccs0125 reporting.
  Task       99 on host ccs0125 reporting.
  Task      100 on host ccs0125 reporting.
  Task      101 on host ccs0125 reporting.
  Task      102 on host ccs0125 reporting.
  Task      103 on host ccs0125 reporting.
  Task      104 on host ccs0125 reporting.
  Task      105 on host ccs0125 reporting.
  Task      106 on host ccs0125 reporting.
  Task      107 on host ccs0125 reporting.
  Task      108 on host ccs0125 reporting.
  Task      109 on host ccs0125 reporting.
  Task      110 on host ccs0125 reporting.
  Task      111 on host ccs0125 reporting.
  Task      112 on host ccs0125 reporting.
  Task      113 on host ccs0125 reporting.
  Task      114 on host ccs0125 reporting.
  Task      115 on host ccs0125 reporting.
  Task      116 on host ccs0125 reporting.
  Task      117 on host ccs0125 reporting.
  Task      118 on host ccs0125 reporting.
  Task      119 on host ccs0125 reporting.

  Performing system and environment tests:
  *** Environment variable OMP_NUM_THREADS is not set
  *** For performance reasons you might want to set it to 1
  | Checking for ScaLAPACK...
  | Testing pdtran()...
  | All pdtran() tests passed.

  Obtaining array dimensions for all initial allocations:
  
  -----------------------------------------------------------------------
  Parsing control.in (first pass over file, find array dimensions only).
  The contents of control.in will be repeated verbatim below
  unless switched off by setting 'verbatim_writeout .false.' .
  in the first line of control.in .
  -----------------------------------------------------------------------
  
  #===============================================================================
  # FHI-aims file: ./control.in
  # Created using the Atomic Simulation Environment (ASE)
  # Mon Apr  8 22:46:27 2024
  #===============================================================================
  spin                               none
  relativistic                       atomic_zora scalar
  compute_forces                     .true.
  override_warning_libxc             true
  xc                                 libxc MGGA_X_MBEEF+GGA_C_PBE_SOL
  k_grid                             5 5 4
  occupation_type                    gaussian 0.1
  plus_u_petukhov_mixing             1
  plus_u_use_hydros                  True
  plus_u_matrix_control              True
  sc_accuracy_etot                   1e-06
  sc_accuracy_eev                    0.001
  sc_accuracy_rho                    1e-06
  sc_accuracy_forces                 0.0001
  relax_geometry                     bfgs 0.01
  #===============================================================================
  
  ################################################################################
  #
  #  FHI-aims code project
  #  VB, Fritz-Haber Institut, 2009
  #
  #  Suggested "light" defaults for W atom (to be pasted into control.in file)
  #  Be sure to double-check any results obtained with these settings for post-processing,
  #  e.g., with the "tight" defaults and larger basis sets.
  #
  ################################################################################
    species          W
  #     global species definitions
      nucleus        74
      mass           183.84
  #
      l_hartree      4
  #
      cut_pot        3.5  1.5  1.0
      basis_dep_cutoff    1e-4
  #
      radial_base    71  5.0
      radial_multiplier  1
      angular_grids specified
        division   0.3522   50
        division   0.9662  110
        division   1.2839  194
        division   1.5443  302
  #      division   1.7847  434
  #      division   2.0413  590
  #      division   2.1047  770
  #      division   2.1708  974
  #      division   2.7309 1202
  #      outer_grid  974
        outer_grid  302
  ################################################################################
  #
  #  Definition of "minimal" basis
  #
  ################################################################################
  #     valence basis states
      valence      6  s   2.
      valence      5  p   6.
      valence      5  d   4.
      valence      4  f  14.
  #     ion occupancy
      ion_occ      6  s   1.
      ion_occ      5  p   6.
      ion_occ      5  d   3.
      ion_occ      4  f  14.
  ################################################################################
  #
  #  Suggested additional basis functions. For production calculations,
  #  uncomment them one after another (the most important basis functions are
  #  listed first).
  #
  #  Constructed for dimers: 1.775, 1.99, 2.50, 3.25, 4.50 AA
  #
  ################################################################################
  #
  #  "First tier" - improvements: -603.77 meV to -28.99 meV
       hydro 4 f 7.8
       hydro 4 d 5.8
       ionic 6 p auto
  #     hydro 5 g 12.4
       ionic 6 s auto
  #  "Second tier" - improvements: -28.30 meV to -1.31 meV
  #     hydro 6 h 16.8
  #     ionic 5 d auto
  #     hydro 4 f 8.6
  #     hydro 5 g 16.8
  #     hydro 5 d 8.4
  #     hydro 3 p 3.3
  #     hydro 1 s 0.55
  #  "Third tier" - max. impr. -1.79 meV, min. impr. -0.26 meV
  #     hydro 5 f 10.8
  #     hydro 5 g 34.4
  #     hydro 6 h 20.8
  #     hydro 5 g 12.8
  #     hydro 2 p 1.6
  #     hydro 4 s 4.7
  #     hydro 6 d 18.4
  #  "Fourth tier" -0.46 max. impr. - meV, min. impr. -0.09 meV
  #     hydro 6 h 21.6
  #     hydro 5 f 22.4
  #     hydro 4 f 4
  #     hydro 5 p 9.6
  #     hydro 6 d 17.2
  #     hydro 3 p 5.2
  #     hydro 5 g 4.7
  #     hydro 6 s 7.6
  plus_u 5 d 2.755
  hubbard_coefficient 0.5 0 0 0
  
  ################################################################################
  #
  #  FHI-aims code project
  #  VB, Fritz-Haber Institut, 2009
  #
  #  Suggested "light" defaults for O atom (to be pasted into control.in file)
  #  Be sure to double-check any results obtained with these settings for post-processing,
  #  e.g., with the "tight" defaults and larger basis sets.
  #
  ################################################################################
    species        O
  #     global species definitions
      nucleus             8
      mass                15.9994
  #
      l_hartree           4
  #
      cut_pot             3.5  1.5  1.0
      basis_dep_cutoff    1e-4
  #
      radial_base         36 5.0
      radial_multiplier   1
       angular_grids specified
        division   0.2659   50
        division   0.4451  110
        division   0.6052  194
        division   0.7543  302
  #      division   0.8014  434
  #      division   0.8507  590
  #      division   0.8762  770
  #      division   0.9023  974
  #      division   1.2339 1202
  #      outer_grid 974
        outer_grid 302
  ################################################################################
  #
  #  Definition of "minimal" basis
  #
  ################################################################################
  #     valence basis states
      valence      2  s   2.
      valence      2  p   4.
  #     ion occupancy
      ion_occ      2  s   1.
      ion_occ      2  p   3.
  ################################################################################
  #
  #  Suggested additional basis functions. For production calculations,
  #  uncomment them one after another (the most important basis functions are
  #  listed first).
  #
  #  Constructed for dimers: 1.0 A, 1.208 A, 1.5 A, 2.0 A, 3.0 A
  #
  ################################################################################
  #  "First tier" - improvements: -699.05 meV to -159.38 meV
       hydro 2 p 1.8
       hydro 3 d 7.6
       hydro 3 s 6.4
  #  "Second tier" - improvements: -49.91 meV to -5.39 meV
  #     hydro 4 f 11.6
  #     hydro 3 p 6.2
  #     hydro 3 d 5.6
  #     hydro 5 g 17.6
  #     hydro 1 s 0.75
  #  "Third tier" - improvements: -2.83 meV to -0.50 meV
  #     ionic 2 p auto
  #     hydro 4 f 10.8
  #     hydro 4 d 4.7
  #     hydro 2 s 6.8
  #  "Fourth tier" - improvements: -0.40 meV to -0.12 meV
  #     hydro 3 p 5
  #     hydro 3 s 3.3
  #     hydro 5 g 15.6
  #     hydro 4 f 17.6
  #     hydro 4 d 14
  # Further basis functions - -0.08 meV and below
  #     hydro 3 s 2.1
  #     hydro 4 d 11.6
  #     hydro 3 p 16
  #     hydro 2 s 17.2
  plus_u 2 p 0
  hubbard_coefficient 1 0 0 0
  
  -----------------------------------------------------------------------
  Completed first pass over input file control.in .
  -----------------------------------------------------------------------
  
  
  -----------------------------------------------------------------------
  Parsing geometry.in (first pass over file, find array dimensions only).
  The contents of geometry.in will be repeated verbatim below
  unless switched off by setting 'verbatim_writeout .false.' .
  in the first line of geometry.in .
  -----------------------------------------------------------------------
  
  #=======================================================
  # FHI-aims file: ./geometry.in
  # Created using the Atomic Simulation Environment (ASE)
  # Mon Apr  8 22:46:27 2024
  #=======================================================
  lattice_vector 7.3258200000000002 0.0000000000000000 0.0000000000000000
  lattice_vector 0.0000000000000000 7.5476700000000001 0.0000000000000000
  lattice_vector -0.0913152982390541 0.0000000000000000 7.7107393131078892
  atom_frac 0.2425974391092822 0.5228601566068142 0.2175626945987396 W
  atom_frac 0.7425969703166013 0.9771385004269543 0.7175643258695535 W
  atom_frac 0.7574023505889865 0.4771385511356262 0.7824366384119740 W
  atom_frac 0.2574036926298757 0.0228626782461362 0.2824323920662914 W
  atom_frac 0.2578716636403212 0.5270343679091349 0.7202241074300028 W
  atom_frac 0.7578709760326046 0.9729668540941186 0.2202220523312668 W
  atom_frac 0.7421280077157045 0.4729665059097131 0.2797761618780258 W
  atom_frac 0.2421297643144602 0.0270327147388290 0.7797813858631670 W
  atom_frac 0.4995549018827086 0.5311766666493285 0.2830782247316390 O
  atom_frac 0.9995535680137666 0.9688232505701942 0.7830780456057655 O
  atom_frac 0.5004447723707858 0.4688233344676385 0.7169215921246094 O
  atom_frac 0.0004462496131953 0.0311767939020924 0.2169215378514132 O
  atom_frac 0.5010192749609598 0.9693131998098096 0.2813529561673306 O
  atom_frac 0.0010179589952710 0.5306865029048045 0.7813520759841085 O
  atom_frac 0.4989814609093072 0.0306867486358763 0.7186477231757438 O
  atom_frac 0.9989824489888892 0.4693136070315977 0.2186474927993481 O
  atom_frac 0.2202821944978666 0.7559961031503957 0.2207646767205522 O
  atom_frac 0.7202823643991659 0.7440042348191647 0.7207649975348427 O
  atom_frac 0.7797177151563476 0.2440048200446486 0.7792356316642514 O
  atom_frac 0.2797174723427639 0.2559944951716450 0.2792355232067547 O
  atom_frac 0.2856625866455923 0.7556664777737252 0.7643796446812107 O
  atom_frac 0.7856624386164606 0.7443327905708402 0.2643793969990063 O
  atom_frac 0.7143371951140876 0.2443337398609342 0.2356202857255085 O
  atom_frac 0.2143375341931189 0.2556669948886464 0.7356204667910587 O
  atom_frac 0.2169373857282844 0.5314208847352222 0.4971351298023041 O
  atom_frac 0.7169372682084281 0.9685788756319126 0.9971358774258597 O
  atom_frac 0.7830626475113306 0.4685790006787563 0.5028639886750820 O
  atom_frac 0.2830621757698537 0.0314212844190593 0.0028618470420940 O
  atom_frac 0.2172207206949445 0.9860062251675430 0.5022249290907158 O
  atom_frac 0.7172210619602670 0.5139940739481094 0.0022221598061239 O
  atom_frac 0.7827787341008104 0.0139934701627604 0.4977775079300998 O
  atom_frac 0.2827790049779467 0.4860060959379782 0.9977785300155666 O
  
  -----------------------------------------------------------------------
  Completed first pass over input file geometry.in .
  -----------------------------------------------------------------------
  

  Basic array size parameters:
  | Number of species                 :        2
  | Number of atoms                   :       32
  | Number of lattice vectors         :        3
  | Max. basis fn. angular momentum   :        3
  | Max. atomic/ionic basis occupied n:        6
  | Max. number of basis fn. types    :        3
  | Max. radial fns per species/type  :       14
  | Max. logarithmic grid size        :     1483
  | Max. radial integration grid size :       71
  | Max. angular integration grid size:      302
  | Max. angular grid division number :        8
  | Radial grid for Hartree potential :     1483
  | Number of spin channels           :        1
  | Max. number of (n,l) shells per species with '+U' treatment:        1

------------------------------------------------------------
          Reading file control.in.
------------------------------------------------------------
  Spin treatment: No spin polarisation.
  Scalar relativistic treatment of kinetic energy: on-site free-atom approximation to ZORA.
  Forces will be computed.
  XC: Using LibXC. Please refer to LibXC output for further details.
  Using libxc - Initializing
  Libxc version: 4.3.4


  ** PLEASE ** be careful using LibXC. Whilst most of the LDA, GGA and MGGA functionals,
  and hybrid variations therein, should be stable (though we always recommend testing!),
  there are several fancy functionals with e.g. range-separation, like HSE03/HSE06/LC-PBEh,
  and also MGGA functionals that depend on the laplacian of the density, like BR89,
  that are not fully implemented due to the infrastrucutre for these functionals being incomplete or non-generic.
  If you want to use these functionals please contact the development team and we will work on them with you!

  You have selected libxc functional MGGA_X_MBEEF (249)
    - Description: mBEEF exchange
    - Type: MGGA(Exchange)
    - Reference to Literature:
      [1] J. Wellendorff, K. T. Lundgaard, K. W. Jacobsen, and T. Bligaard, J. Chem. Phys. 140, 144107 (2014)

  You have selected libxc functional GGA_C_PBE_SOL (133)
    - Description: Perdew, Burke & Ernzerhof SOL
    - Type: GGA(Correlation)
    - Reference to Literature:
      [1] J. P. Perdew, A. Ruzsinszky, G. I. Csonka, O. A. Vydrov, G. E. Scuseria, L. A. Constantin, X. Zhou, and K. Burke, Phys.

  Switching on meta-ggas
  Found k-point grid:         5         5         4
  Occupation type: Gaussian broadening, width =   0.100000E+00 eV.
  Fixing petukhov mixing factor to   1.000000000000
  hydrogenic basis funktions also used for DFT+U reference states
  Convergence accuracy of total energy:  0.1000E-05
  Convergence accuracy of sum of eigenvalues:  0.1000E-02
  Convergence accuracy of self-consistent charge density:  0.1000E-05
  Convergence accuracy of forces:  0.1000E-03
  Geometry relaxation: Modified BFGS - TRM (trust radius method) for lattice optimization.
  Convergence accuracy for geometry relaxation: Maximum force <   0.100000E-01 eV/A.
 
  Reading configuration options for species W                   .
  | Found nuclear charge :  74.0000
  | Found atomic mass :    183.840000000000      amu
  | Found l_max for Hartree potential  :   4
  | Found cutoff potl. onset [A], width [A], scale factor :    3.50000    1.50000    1.00000
  | Threshold for basis-dependent cutoff potential is   0.100000E-03
  | Found data for basic radial integration grid :    71 points, outermost radius =    5.000 A
  | Found multiplier for basic radial grid :   1
  | Found angular grid specification: user-specified.
  | Specified grid contains     5 separate shells.
  | Check grid settings after all constraints further below.
  | Found free-atom valence shell :  6 s   2.000
  | Found free-atom valence shell :  5 p   6.000
  | Found free-atom valence shell :  5 d   4.000
  | Found free-atom valence shell :  4 f  14.000
  | Found free-ion valence shell :  6 s   1.000
  | Found free-ion valence shell :  5 p   6.000
  | Found free-ion valence shell :  5 d   3.000
  | Found free-ion valence shell :  4 f  14.000
  | Found hydrogenic basis function :  4 f   7.800
  | Found hydrogenic basis function :  4 d   5.800
  | Found ionic basis function :  6 p , default cutoff radius.
  | Found ionic basis function :  6 s , default cutoff radius.
  | Found request for '+U' treatment for  5 d shell, U =     2.755000 eV.
  | Found coefficents for linear combination of hubbard projectors 
  Species W                   : Missing cutoff potential type.
  Defaulting to exp(1/x)/(1-x)^2 type cutoff potential.
  Species W : No 'logarithmic' tag. Using default grid for free atom:
  | Default logarithmic grid data [bohr] : 0.1000E-03 0.1000E+03 0.1012E+01
  | Will include ionic basis functions of  2.0-fold positive W                    ion.
  Species W : On-site basis accuracy parameter (for Gram-Schmidt orthonormalisation) not specified.
  Using default value basis_acc =  0.1000000E-03.
  Species W                   : Using default innermost maximum threshold i_radial=  2 for radial functions.
  Species W                   : Default cutoff onset for free atom density etc. : 0.35000000E+01 AA.
  Species W                   : Basic radial grid will be enhanced according to radial_multiplier =   1, to contain    71 grid points.
 
  Reading configuration options for species O                   .
  | Found nuclear charge :   8.0000
  | Found atomic mass :    15.9994000000000      amu
  | Found l_max for Hartree potential  :   4
  | Found cutoff potl. onset [A], width [A], scale factor :    3.50000    1.50000    1.00000
  | Threshold for basis-dependent cutoff potential is   0.100000E-03
  | Found data for basic radial integration grid :    36 points, outermost radius =    5.000 A
  | Found multiplier for basic radial grid :   1
  | Found angular grid specification: user-specified.
  | Specified grid contains     5 separate shells.
  | Check grid settings after all constraints further below.
  | Found free-atom valence shell :  2 s   2.000
  | Found free-atom valence shell :  2 p   4.000
  | Found free-ion valence shell :  2 s   1.000
  | Found free-ion valence shell :  2 p   3.000
  | Found hydrogenic basis function :  2 p   1.800
  | Found hydrogenic basis function :  3 d   7.600
  | Found hydrogenic basis function :  3 s   6.400
  | Found request for '+U' treatment for  2 p shell, U =     0.000000 eV.
  | Found coefficents for linear combination of hubbard projectors 
  Species O                   : Missing cutoff potential type.
  Defaulting to exp(1/x)/(1-x)^2 type cutoff potential.
  Species O : No 'logarithmic' tag. Using default grid for free atom:
  | Default logarithmic grid data [bohr] : 0.1000E-03 0.1000E+03 0.1012E+01
  Species O : On-site basis accuracy parameter (for Gram-Schmidt orthonormalisation) not specified.
  Using default value basis_acc =  0.1000000E-03.
  Species O                   : Using default innermost maximum threshold i_radial=  2 for radial functions.
  Species O                   : Default cutoff onset for free atom density etc. : 0.35000000E+01 AA.
  Species O                   : Basic radial grid will be enhanced according to radial_multiplier =   1, to contain    36 grid points.
 
  Finished reading input file 'control.in'.
 
------------------------------------------------------------


------------------------------------------------------------
          Reading geometry description geometry.in.
------------------------------------------------------------
  | The smallest distance between any two atoms is         1.74298881 AA.
  | The first atom of this pair is atom number                      8 .
  | The second atom of this pair is atom number                    28 .
  | Wigner-Seitz cell of the first atom image           0     0     0 .
  | (The Wigner-Seitz cell of the second atom is 0 0 0  by definition.)

  Symmetry information by spglib:
  | Precision set to  0.1E-04
  | Number of Operations  : 1
  | Space group           : 1
  | International         : P1      y
  | Schoenflies           : C1^1
  Input structure read successfully.
  The structure contains       32 atoms,  and a total of        784.000 electrons.

  Input geometry:
  | Unit cell:
  |        7.32582000        0.00000000        0.00000000
  |        0.00000000        7.54767000        0.00000000
  |       -0.09131530        0.00000000        7.71073931
  | Atomic structure:
  |       Atom                x [A]            y [A]            z [A]
  |    1: Species W             1.75735837        3.94637592        1.67756922
  |    2: Species W             5.37460714        7.37511895        5.53295146
  |    3: Species W             5.47714485        3.60128433        6.03316495
  |    4: Species W             1.85990272        0.17255995        2.17776255
  |    5: Species W             1.82335391        3.97788149        5.55346034
  |    6: Species W             5.53191671        7.34363274        1.69807484
  |    7: Species W             5.41114836        3.56979511        2.15728105
  |    8: Species W             1.70259310        0.20403401        6.01269099
  |    9: Species O             3.63379992        4.00914619        2.18274240
  |   10: Species O             7.25104251        7.31235818        6.03811067
  |   11: Species O             3.60070241        3.53852382        5.52799550
  |   12: Species O            -0.01653911        0.23531215        1.67262543
  |   13: Species O             3.64468520        7.31605616        2.16943930
  |   14: Species O            -0.06389201        4.00544660        6.02480217
  |   15: Species O             3.58982483        0.23161345        5.54130525
  |   16: Species O             7.29839974        3.54222423        1.68593382
  |   17: Species O             1.59358851        5.70600911        1.70225887
  |   18: Species O             5.21084208        5.61549844        5.55763100
  |   19: Species O             5.64091550        1.84166786        6.00848282
  |   20: Species O             2.02366138        1.93216197        2.15311233
  |   21: Species O             2.02291314        5.70352120        5.89393218
  |   22: Species O             5.73147972        5.61797827        2.03856061
  |   23: Species O             5.21158997        1.84415044        1.81680660
  |   24: Species O             1.50302479        1.92969011        5.67217765
  |   25: Species O             1.54384820        4.01098947        3.83327939
  |   26: Species O             5.16109962        7.31051372        7.68865481
  |   27: Species O             5.69065683        3.53667967        3.87745313
  |   28: Species O             2.07340122        0.23715749        0.02206696
  |   29: Species O             1.54545908        7.44204961        3.87252550
  |   30: Species O             5.25402948        3.87945765        0.01713449
  |   31: Species O             5.68904140        0.10561809        3.83823260
  |   32: Species O             1.98047565        3.66821363        7.69361014

  Lattice parameters for 3D lattice (in Angstroms) :     7.325820    7.547670    7.711280
  Angle(s) between unit vectors (in degrees)       :    90.000000   90.678500   90.000000


  Quantities derived from the lattice vectors:
  | Reciprocal lattice vector 1:  0.857677  0.000000  0.010157
  | Reciprocal lattice vector 2:  0.000000  0.832467 -0.000000
  | Reciprocal lattice vector 3:  0.000000  0.000000  0.814862
  | Unit cell volume                               :   0.426349E+03  A^3

  Fractional coordinates:
                         L1                L2                L3
       atom_frac         0.24259744        0.52286016        0.21756269  W
       atom_frac         0.74259697        0.97713850        0.71756433  W
       atom_frac         0.75740235        0.47713855        0.78243664  W
       atom_frac         0.25740369        0.02286268        0.28243239  W
       atom_frac         0.25787166        0.52703437        0.72022411  W
       atom_frac         0.75787098        0.97296685        0.22022205  W
       atom_frac         0.74212801        0.47296651        0.27977616  W
       atom_frac         0.24212976        0.02703271        0.77978139  W
       atom_frac         0.49955490        0.53117667        0.28307822  O
       atom_frac         0.99955357        0.96882325        0.78307805  O
       atom_frac         0.50044477        0.46882333        0.71692159  O
       atom_frac         0.00044625        0.03117679        0.21692154  O
       atom_frac         0.50101927        0.96931320        0.28135296  O
       atom_frac         0.00101796        0.53068650        0.78135208  O
       atom_frac         0.49898146        0.03068675        0.71864772  O
       atom_frac         0.99898245        0.46931361        0.21864749  O
       atom_frac         0.22028219        0.75599610        0.22076468  O
       atom_frac         0.72028236        0.74400423        0.72076500  O
       atom_frac         0.77971772        0.24400482        0.77923563  O
       atom_frac         0.27971747        0.25599450        0.27923552  O
       atom_frac         0.28566259        0.75566648        0.76437964  O
       atom_frac         0.78566244        0.74433279        0.26437940  O
       atom_frac         0.71433720        0.24433374        0.23562029  O
       atom_frac         0.21433753        0.25566699        0.73562047  O
       atom_frac         0.21693739        0.53142088        0.49713513  O
       atom_frac         0.71693727        0.96857888        0.99713588  O
       atom_frac         0.78306265        0.46857900        0.50286399  O
       atom_frac         0.28306218        0.03142128        0.00286185  O
       atom_frac         0.21722072        0.98600623        0.50222493  O
       atom_frac         0.71722106        0.51399407        0.00222216  O
       atom_frac         0.78277873        0.01399347        0.49777751  O
       atom_frac         0.28277900        0.48600610        0.99777853  O

 
  Finished reading input file 'control.in'.
 

------------------------------------------------------------
          Reading geometry description geometry.in.
------------------------------------------------------------
 
  Consistency checks for stacksize environment parameter are next.
 
  | Maximum stacksize for task 0: unlimited
  | Maximum stacksize for task 1: unlimited
  | Maximum stacksize for task 2: unlimited
  | Maximum stacksize for task 3: unlimited
  | Maximum stacksize for task 4: unlimited
  | Maximum stacksize for task 5: unlimited
  | Maximum stacksize for task 6: unlimited
  | Maximum stacksize for task 7: unlimited
  | Maximum stacksize for task 8: unlimited
  | Maximum stacksize for task 9: unlimited
  | Maximum stacksize for task 10: unlimited
  | Maximum stacksize for task 11: unlimited
  | Maximum stacksize for task 12: unlimited
  | Maximum stacksize for task 13: unlimited
  | Maximum stacksize for task 14: unlimited
  | Maximum stacksize for task 15: unlimited
  | Maximum stacksize for task 16: unlimited
  | Maximum stacksize for task 17: unlimited
  | Maximum stacksize for task 18: unlimited
  | Maximum stacksize for task 19: unlimited
  | Maximum stacksize for task 20: unlimited
  | Maximum stacksize for task 21: unlimited
  | Maximum stacksize for task 22: unlimited
  | Maximum stacksize for task 23: unlimited
  | Maximum stacksize for task 24: unlimited
  | Maximum stacksize for task 25: unlimited
  | Maximum stacksize for task 26: unlimited
  | Maximum stacksize for task 27: unlimited
  | Maximum stacksize for task 28: unlimited
  | Maximum stacksize for task 29: unlimited
  | Maximum stacksize for task 30: unlimited
  | Maximum stacksize for task 31: unlimited
  | Maximum stacksize for task 32: unlimited
  | Maximum stacksize for task 33: unlimited
  | Maximum stacksize for task 34: unlimited
  | Maximum stacksize for task 35: unlimited
  | Maximum stacksize for task 36: unlimited
  | Maximum stacksize for task 37: unlimited
  | Maximum stacksize for task 38: unlimited
  | Maximum stacksize for task 39: unlimited
  | Maximum stacksize for task 40: unlimited
  | Maximum stacksize for task 41: unlimited
  | Maximum stacksize for task 42: unlimited
  | Maximum stacksize for task 43: unlimited
  | Maximum stacksize for task 44: unlimited
  | Maximum stacksize for task 45: unlimited
  | Maximum stacksize for task 46: unlimited
  | Maximum stacksize for task 47: unlimited
  | Maximum stacksize for task 48: unlimited
  | Maximum stacksize for task 49: unlimited
  | Maximum stacksize for task 50: unlimited
  | Maximum stacksize for task 51: unlimited
  | Maximum stacksize for task 52: unlimited
  | Maximum stacksize for task 53: unlimited
  | Maximum stacksize for task 54: unlimited
  | Maximum stacksize for task 55: unlimited
  | Maximum stacksize for task 56: unlimited
  | Maximum stacksize for task 57: unlimited
  | Maximum stacksize for task 58: unlimited
  | Maximum stacksize for task 59: unlimited
  | Maximum stacksize for task 60: unlimited
  | Maximum stacksize for task 61: unlimited
  | Maximum stacksize for task 62: unlimited
  | Maximum stacksize for task 63: unlimited
  | Maximum stacksize for task 64: unlimited
  | Maximum stacksize for task 65: unlimited
  | Maximum stacksize for task 66: unlimited
  | Maximum stacksize for task 67: unlimited
  | Maximum stacksize for task 68: unlimited
  | Maximum stacksize for task 69: unlimited
  | Maximum stacksize for task 70: unlimited
  | Maximum stacksize for task 71: unlimited
  | Maximum stacksize for task 72: unlimited
  | Maximum stacksize for task 73: unlimited
  | Maximum stacksize for task 74: unlimited
  | Maximum stacksize for task 75: unlimited
  | Maximum stacksize for task 76: unlimited
  | Maximum stacksize for task 77: unlimited
  | Maximum stacksize for task 78: unlimited
  | Maximum stacksize for task 79: unlimited
  | Maximum stacksize for task 80: unlimited
  | Maximum stacksize for task 81: unlimited
  | Maximum stacksize for task 82: unlimited
  | Maximum stacksize for task 83: unlimited
  | Maximum stacksize for task 84: unlimited
  | Maximum stacksize for task 85: unlimited
  | Maximum stacksize for task 86: unlimited
  | Maximum stacksize for task 87: unlimited
  | Maximum stacksize for task 88: unlimited
  | Maximum stacksize for task 89: unlimited
  | Maximum stacksize for task 90: unlimited
  | Maximum stacksize for task 91: unlimited
  | Maximum stacksize for task 92: unlimited
  | Maximum stacksize for task 93: unlimited
  | Maximum stacksize for task 94: unlimited
  | Maximum stacksize for task 95: unlimited
  | Maximum stacksize for task 96: unlimited
  | Maximum stacksize for task 97: unlimited
  | Maximum stacksize for task 98: unlimited
  | Maximum stacksize for task 99: unlimited
  | Maximum stacksize for task 100: unlimited
  | Maximum stacksize for task 101: unlimited
  | Maximum stacksize for task 102: unlimited
  | Maximum stacksize for task 103: unlimited
  | Maximum stacksize for task 104: unlimited
  | Maximum stacksize for task 105: unlimited
  | Maximum stacksize for task 106: unlimited
  | Maximum stacksize for task 107: unlimited
  | Maximum stacksize for task 108: unlimited
  | Maximum stacksize for task 109: unlimited
  | Maximum stacksize for task 110: unlimited
  | Maximum stacksize for task 111: unlimited
  | Maximum stacksize for task 112: unlimited
  | Maximum stacksize for task 113: unlimited
  | Maximum stacksize for task 114: unlimited
  | Maximum stacksize for task 115: unlimited
  | Maximum stacksize for task 116: unlimited
  | Maximum stacksize for task 117: unlimited
  | Maximum stacksize for task 118: unlimited
  | Maximum stacksize for task 119: unlimited
  | Current stacksize for task 0: unlimited
  | Current stacksize for task 1: unlimited
  | Current stacksize for task 2: unlimited
  | Current stacksize for task 3: unlimited
  | Current stacksize for task 4: unlimited
  | Current stacksize for task 5: unlimited
  | Current stacksize for task 6: unlimited
  | Current stacksize for task 7: unlimited
  | Current stacksize for task 8: unlimited
  | Current stacksize for task 9: unlimited
  | Current stacksize for task 10: unlimited
  | Current stacksize for task 11: unlimited
  | Current stacksize for task 12: unlimited
  | Current stacksize for task 13: unlimited
  | Current stacksize for task 14: unlimited
  | Current stacksize for task 15: unlimited
  | Current stacksize for task 16: unlimited
  | Current stacksize for task 17: unlimited
  | Current stacksize for task 18: unlimited
  | Current stacksize for task 19: unlimited
  | Current stacksize for task 20: unlimited
  | Current stacksize for task 21: unlimited
  | Current stacksize for task 22: unlimited
  | Current stacksize for task 23: unlimited
  | Current stacksize for task 24: unlimited
  | Current stacksize for task 25: unlimited
  | Current stacksize for task 26: unlimited
  | Current stacksize for task 27: unlimited
  | Current stacksize for task 28: unlimited
  | Current stacksize for task 29: unlimited
  | Current stacksize for task 30: unlimited
  | Current stacksize for task 31: unlimited
  | Current stacksize for task 32: unlimited
  | Current stacksize for task 33: unlimited
  | Current stacksize for task 34: unlimited
  | Current stacksize for task 35: unlimited
  | Current stacksize for task 36: unlimited
  | Current stacksize for task 37: unlimited
  | Current stacksize for task 38: unlimited
  | Current stacksize for task 39: unlimited
  | Current stacksize for task 40: unlimited
  | Current stacksize for task 41: unlimited
  | Current stacksize for task 42: unlimited
  | Current stacksize for task 43: unlimited
  | Current stacksize for task 44: unlimited
  | Current stacksize for task 45: unlimited
  | Current stacksize for task 46: unlimited
  | Current stacksize for task 47: unlimited
  | Current stacksize for task 48: unlimited
  | Current stacksize for task 49: unlimited
  | Current stacksize for task 50: unlimited
  | Current stacksize for task 51: unlimited
  | Current stacksize for task 52: unlimited
  | Current stacksize for task 53: unlimited
  | Current stacksize for task 54: unlimited
  | Current stacksize for task 55: unlimited
  | Current stacksize for task 56: unlimited
  | Current stacksize for task 57: unlimited
  | Current stacksize for task 58: unlimited
  | Current stacksize for task 59: unlimited
  | Current stacksize for task 60: unlimited
  | Current stacksize for task 61: unlimited
  | Current stacksize for task 62: unlimited
  | Current stacksize for task 63: unlimited
  | Current stacksize for task 64: unlimited
  | Current stacksize for task 65: unlimited
  | Current stacksize for task 66: unlimited
  | Current stacksize for task 67: unlimited
  | Current stacksize for task 68: unlimited
  | Current stacksize for task 69: unlimited
  | Current stacksize for task 70: unlimited
  | Current stacksize for task 71: unlimited
  | Current stacksize for task 72: unlimited
  | Current stacksize for task 73: unlimited
  | Current stacksize for task 74: unlimited
  | Current stacksize for task 75: unlimited
  | Current stacksize for task 76: unlimited
  | Current stacksize for task 77: unlimited
  | Current stacksize for task 78: unlimited
  | Current stacksize for task 79: unlimited
  | Current stacksize for task 80: unlimited
  | Current stacksize for task 81: unlimited
  | Current stacksize for task 82: unlimited
  | Current stacksize for task 83: unlimited
  | Current stacksize for task 84: unlimited
  | Current stacksize for task 85: unlimited
  | Current stacksize for task 86: unlimited
  | Current stacksize for task 87: unlimited
  | Current stacksize for task 88: unlimited
  | Current stacksize for task 89: unlimited
  | Current stacksize for task 90: unlimited
  | Current stacksize for task 91: unlimited
  | Current stacksize for task 92: unlimited
  | Current stacksize for task 93: unlimited
  | Current stacksize for task 94: unlimited
  | Current stacksize for task 95: unlimited
  | Current stacksize for task 96: unlimited
  | Current stacksize for task 97: unlimited
  | Current stacksize for task 98: unlimited
  | Current stacksize for task 99: unlimited
  | Current stacksize for task 100: unlimited
  | Current stacksize for task 101: unlimited
  | Current stacksize for task 102: unlimited
  | Current stacksize for task 103: unlimited
  | Current stacksize for task 104: unlimited
  | Current stacksize for task 105: unlimited
  | Current stacksize for task 106: unlimited
  | Current stacksize for task 107: unlimited
  | Current stacksize for task 108: unlimited
  | Current stacksize for task 109: unlimited
  | Current stacksize for task 110: unlimited
  | Current stacksize for task 111: unlimited
  | Current stacksize for task 112: unlimited
  | Current stacksize for task 113: unlimited
  | Current stacksize for task 114: unlimited
  | Current stacksize for task 115: unlimited
  | Current stacksize for task 116: unlimited
  | Current stacksize for task 117: unlimited
  | Current stacksize for task 118: unlimited
  | Current stacksize for task 119: unlimited
 
  Consistency checks for the contents of control.in are next.
 
  MPI_IN_PLACE appears to work with this MPI implementation.
  | Keeping use_mpi_in_place .true. (see manual).
  Target number of points in a grid batch is not set. Defaulting to  100
  Method for grid partitioning is not set. Defaulting to parallel hash+maxmin partitioning.
  Batch size limit is not set. Defaulting to    200
  By default, will store active basis functions for each batch.
  If in need of memory, prune_basis_once .false. can be used to disable this option.
  communication_type for Hartree potential was not specified.
  Defaulting to calc_hartree .
  Defaulting to Pulay charge density mixer.
  Pulay mixer: Number of relevant iterations not set.
  Defaulting to    8 iterations.
  Pulay mixer: Number of initial linear mixing iterations not set.
  Defaulting to    0 iterations.
  Work space size for distributed Hartree potential not set.
  Defaulting to   0.200000E+03 MB.
  Mixing parameter for charge density mixing has not been set.
  Using default: charge_mix_param =     0.0500.
  The mixing parameter will be adjusted in iteration number     2 of the first full s.c.f. cycle only.
  Algorithm-dependent basis array size parameters:
  | n_max_pulay                         :        8
  Maximum number of self-consistency iterations not provided.
  Presetting  1000 iterations.
  Presetting      1001 iterations before the initial mixing cycle
  is restarted anyway using the sc_init_iter criterion / keyword.
  Presetting a factor      1.000 between actual scf density residual
  and density convergence criterion sc_accuracy_rho below which sc_init_iter
  takes no effect.
  No maximum number of relaxation steps, defaulting to     1000
  Default initial Hessian is Lindh matrix (thres = 15.00) plus  0.200000E+01 eV/A^2 times unity.
  No maximum energy tolerance for TRM/BFGS moves, defaulting to   0.100000E-02
  Maximum energy tolerance by which TRM/BFGS trajectory may increase over multiple steps:   0.300000E-02
  No harmonic length scale. Defaulting to   0.250000E-01 A.
  No trust radius initializer. Defaulting to   0.200000E+00 A.
  Forces evaluation will include force correction term due to incomplete self-consistency (default).
  Handling of forces: Unphysical translation and rotation will be removed from forces.
  No accuracy limit for integral partition fn. given. Defaulting to  0.1000E-14.
  No threshold value for u(r) in integrations given. Defaulting to  0.1000E-05.
  No accuracy for occupation numbers given. Defaulting to  0.1000E-12.
  No threshold value for occupation numbers given. Defaulting to  0.0000E+00.
  No accuracy for fermi level given. Defaulting to  0.1000E-19.
  Maximum # of iterations to find E_F not set. Defaulting to  200.
  Preferred method for the eigenvalue solver ('KS_method') not specified in 'control.in'.
  Calling BLACS routine to test compilation state
  Since ScaLAPACK support is enabled, defaulting to ELPA (via ELSI).
  Will not use alltoall communication since running on < 1024 CPUs.
  Threshold for basis singularities not set.
  Default threshold for basis singularities:  0.1000E-04
  partition_type (choice of integration weights) for integrals was not specified.
  | Using a version of the partition function of Stratmann and coworkers ('stratmann_sparse').
  | At each grid point, the set of atoms used to build the partition table is smoothly restricted to
  | only those atoms whose free-atom density would be non-zero at that grid point.
  Partitioning for Hartree potential was not defined. Using partition_type for integrals.
  | Adjusted default value of keyword multip_moments_threshold to:       0.10000000E-11
  | This value may affect high angular momentum components of the Hartree potential in periodic systems.
  Angular momentum expansion for Kerker preconditioner not set explicitly.
  | Using default value of   0
  No explicit requirement for turning off preconditioner.
  | By default, it will be turned off when the charge convergence reaches
  | sc_accuracy_rho  =   0.100000E-05
  | sc_accuracy_eev  =   0.100000E-02
  | sc_accuracy_etot =   0.100000E-05
  No special mixing parameter while Kerker preconditioner is on.
  Using default: charge_mix_param =     0.0500.
  No q(lm)/r^(l+1) cutoff set for long-range Hartree potential.
  | Using default value of  0.100000E-09 .
  | Verify using the multipole_threshold keyword.
  Defaulting to new monopole extrapolation.
  Density update method: automatic selection selected.
  Using density matrix based charge density update.
 * Warning: DFT+U requires using density matrix based charge density update.
  Using density matrix based charge density update.
  Using packed matrix style: index .
  Geometry relaxation: A file "geometry.in.next_step" is written out by default after each step.
  | This file contains the geometry of the current relaxation step as well as
  | the current Hessian matrix needed to restart the relaxation algorithm.
  | If you do not want part or all of this information, use the keywords
  | "write_restart_geometry" or "hessian_to_restart_geometry" to switch the output off.
  Defaulting to use time-reversal symmetry for k-point grid.
  Charge integration errors on the 3D integration grid will be compensated
  by explicit normalization and distribution of residual charges.
  Use the "compensate_multipole_errors" flag to change this behaviour.
 
  Consistency checks for the contents of geometry.in are next.
 

  Range separation radius for Ewald summation (hartree_convergence_parameter):      3.33587012 bohr.
  Number of empty states per atom not set in control.in - providing a guess from actual geometry.
  | Total number of empty states used during s.c.f. cycle:      144
  If you use a very high smearing, use empty_states (per atom!) in control.in to increase this value.

  Structure-dependent array size parameters: 
  | Maximum number of distinct radial functions  :       24
  | Maximum number of basis functions            :      784
  | Number of Kohn-Sham states (occupied + empty):      536
------------------------------------------------------------

------------------------------------------------------------
          Preparing all fixed parts of the calculation.
------------------------------------------------------------
  Determining machine precision:
    2.225073858507201E-308
  Setting up grids for atomic and cluster calculations.

  Creating wave function, potential, and density for free atoms.

  Species: W

  List of occupied orbitals and eigenvalues:
    n    l              occ      energy [Ha]    energy [eV]
    1    0           2.0000     -2762.321563    -75166.5942
    2    0           2.0000      -447.475579    -12176.4300
    3    0           2.0000      -101.819611     -2770.6526
    4    0           2.0000       -20.892496      -568.5137
    5    0           2.0000        -2.900160       -78.9174
    6    0           2.0000        -0.207646        -5.6503
    2    1           6.0000      -390.904632    -10637.0562
    3    1           6.0000       -85.380865     -2323.3316
    4    1           6.0000       -15.528411      -422.5496
    5    1           6.0000        -1.581486       -43.0344
    3    2          10.0000       -66.512759     -1809.9043
    4    2          10.0000        -8.744188      -237.9415
    5    2           4.0000        -0.162497        -4.4218
    4    3          14.0000        -1.223594       -33.2957


  Species: O

  List of occupied orbitals and eigenvalues:
    n    l              occ      energy [Ha]    energy [eV]
    1    0           2.0000       -18.786109      -511.1960
    2    0           2.0000        -0.872635       -23.7456
    2    1           4.0000        -0.337687        -9.1889


  Adding cutoff potential to free-atom effective potential.
  Creating fixed part of basis set: Ionic, confined, hydrogenic.
 
  W                    ion:

  List of free ionic orbitals and eigenvalues:
    n    l      energy [Ha]    energy [eV]
    1    0     -2763.098719    -75187.7417
    2    0      -448.208294    -12196.3682
    3    0      -102.543538     -2790.3516
    4    0       -21.614730      -588.1667
    5    0        -3.616824       -98.4188
    6    0        -0.765393       -20.8274
    2    1      -391.636291    -10656.9657
    3    1       -86.104489     -2343.0224
    4    1       -16.250625      -442.2020
    5    1        -2.290370       -62.3241
    3    2       -67.236345     -1829.5940
    4    2        -9.466347      -257.5924
    5    2        -0.817995       -22.2588
    4    3        -1.944712       -52.9183


  List of ionic basis orbitals and eigenvalues:
    n    l      energy [Ha]    energy [eV]    outer radius [A]
    6    1        -0.515087       -14.0162       4.579510
    6    0        -0.765211       -20.8224       4.523866

 
  W                    hydrogenic:
 
  List of hydrogenic basis orbitals: 
    n    l      effective z      eigenvalue [eV]  inner max. [A]     outer max. [A]     outer radius [A]   
    4    3         7.800000       -51.7351           1.082252           1.082252           4.360959
    4    2         5.800000       -28.5269           0.616741           1.922484           4.579510
 
 
  O                    hydrogenic:
 
  List of hydrogenic basis orbitals: 
    n    l      effective z      eigenvalue [eV]  inner max. [A]     outer max. [A]     outer radius [A]   
    2    1         1.800000       -10.9749           1.164242           1.164242           4.578029
    3    2         7.600000       -87.3180           0.624125           0.624125           3.251020
    3    0         6.400000       -61.9207           0.061167           1.081902           4.001998
 
  Creating atomic-like basis functions for current effective potential.

  Species W                   :

  List of atomic basis orbitals and eigenvalues:
    n    l      energy [Ha]    energy [eV]    outer radius [A]
    1    0     -2762.321563    -75166.5942       0.130566
    2    0      -447.475579    -12176.4300       0.342973
    3    0      -101.819611     -2770.6526       0.722975
    4    0       -20.892496      -568.5137       1.542753
    5    0        -2.900160       -78.9174       3.812241
    6    0        -0.207646        -5.6503       4.579510
    2    1      -390.904632    -10637.0562       0.355785
    3    1       -85.380865     -2323.3316       0.768545
    4    1       -15.528411      -422.5496       1.743367
    5    1        -1.581486       -43.0344       4.255627
    3    2       -66.512759     -1809.9043       0.827037
    4    2        -8.744188      -237.9415       2.172477
    5    2        -0.162497        -4.4218       4.579510
    4    3        -1.223594       -33.2957       4.152839


  Species O                   :

  List of atomic basis orbitals and eigenvalues:
    n    l      energy [Ha]    energy [eV]    outer radius [A]
    1    0       -18.786109      -511.1960       1.433179
    2    0        -0.872635       -23.7456       4.413171
    2    1        -0.337687        -9.1889       4.522403

  Assembling full basis from fixed parts.
 * Warning - Since '+U' treatment was requested,
 * the basis-dependent cutoff is turned off automatically.
  | Species W :   atomic orbital   1 s accepted.
  | Species W :   atomic orbital   2 s accepted.
  | Species W :   atomic orbital   3 s accepted.
  | Species W :   atomic orbital   4 s accepted.
  | Species W :   atomic orbital   5 s accepted.
  | Species W :   atomic orbital   6 s accepted.
  | Species W :    ionic orbital   6 s accepted.
  | Species W :   atomic orbital   2 p accepted.
  | Species W :   atomic orbital   3 p accepted.
  | Species W :   atomic orbital   4 p accepted.
  | Species W :   atomic orbital   5 p accepted.
  | Species W :    ionic orbital   6 p accepted.
  | Species W :   atomic orbital   3 d accepted.
  | Species W :   atomic orbital   4 d accepted.
  | Species W :   atomic orbital   5 d accepted.
  | Species W :    hydro orbital   4 d accepted.
  | Species W :   atomic orbital   4 f accepted.
  | Species W :    hydro orbital   4 f accepted.
 * Warning - Since '+U' treatment was requested,
 * the basis-dependent cutoff is turned off automatically.
  | Species O :   atomic orbital   1 s accepted.
  | Species O :   atomic orbital   2 s accepted.
  | Species O :    hydro orbital   3 s accepted.
  | Species O :   atomic orbital   2 p accepted.
  | Species O :    hydro orbital   2 p accepted.
  | Species O :    hydro orbital   3 d accepted.
 
  Basis size parameters after reduction:
  | Total number of radial functions:       24
  | Total number of basis functions :      784
 
  Per-task memory consumption for arrays in subroutine allocate_ext:
  |           9.132064MB.
  Testing on-site integration grid accuracy.
  |  Species  Function  <phi|h_atom|phi> (log., in eV)  <phi|h_atom|phi> (rad., in eV)
           1        1             -75166.5941829202             -75166.2963845349 ***
           1        2             -12176.4300443313             -12176.4244740130
           1        3              -2770.6525853660              -2770.6522914840
           1        4               -568.5137341422               -568.5137148499
           1        5                -78.9173646122                -78.9173632777
           1        6                 -5.6624167746                 -5.6670957154
           1        7                  6.3161795637                  6.2642968273 ***
           1        8             -10637.0562318832             -10637.0562266318
           1        9              -2323.3315548951              -2323.3315407880
           1       10               -422.5495664397               -422.5495630511
           1       11                -43.0344218457                -43.0344212763
           1       12                 -0.0870825552                 -0.0919272402
           1       13              -1809.9042649712              -1809.9042593982
           1       14               -237.9414552254               -237.9414538240
           1       15                 -4.4240303863                 -4.4249183561
           1       16                  8.5737076126                  8.5668165549
           1       17                -33.2956780330                -33.2956778856
           1       18                 21.2971038809                 21.2972907921
           2       19               -511.1960429777               -511.1959399133
           2       20                -23.7455964041                -23.7455972542
           2       21                 17.3746964700                 17.3748057881
           2       22                 -9.1890598667                 -9.1892026751
           2       23                  8.1915160719                  8.1720639763
           2       24                 45.8005976646                 45.8005620229
 * Note: Onsite integrals marked "***" above are less accurate than
 * onsite_accuracy_threshold =    0.03000 eV. Usually, this is harmless.
 * However, one integral did have a negative value. This integral could be important.
 * When in doubt, tighten the "radial" and/or "radial_multiplier" flags to check.

  Preparing densities etc. for the partition functions (integrals / Hartree potential).

  Preparations completed.
  max(cpu_time)          :      0.731 s.
  Wall clock time (cpu1) :      0.732 s.
------------------------------------------------------------

------------------------------------------------------------
          Begin self-consistency loop: Initialization.

          Date     :  20240812, Time     :  150703.557
------------------------------------------------------------

  Initializing index lists of integration centers etc. from given atomic structure:
  Mapping all atomic coordinates to central unit cell.

  Initializing the k-points
  Using symmetry for reducing the k-points
  | k-points reduced from:      100 to       51
  | Number of k-points                             :        51
  The eigenvectors in the calculations are COMPLEX.
  | Number of basis functions in the Hamiltonian integrals :      5614
  | Number of basis functions in a single unit cell        :       784
  | Number of centers in hartree potential         :      1676
  | Number of centers in hartree multipole         :      1046
  | Number of centers in electron density summation:       782
  | Number of centers in basis integrals           :       832
  | Number of centers in integrals                 :       316
  | Number of centers in hamiltonian               :       782
  | Consuming         46 KiB for k_phase.
  | Number of super-cells (origin) [n_cells]                     :         343
  | Number of super-cells (after PM_index) [n_cells]             :          58
  | Number of super-cells in hamiltonian [n_cells_in_hamiltonian]:          58
  | Size of matrix packed + index [n_hamiltonian_matrix_size] :     1389581

  Initializing relaxation algorithms.
  Finished initialization of distributed Hessian storage.
  | Global dimension:        96
  | BLACS block size:         1
  | Number of workers:       96

  | Estimated reciprocal-space cutoff momentum G_max:         2.81901543 bohr^-1 .
  | Reciprocal lattice points for long-range Hartree potential:    1082
  Using simple linear distribution as default method for k-point parallelism.
  * Using 120 tasks for Scalapack Eigenvalue solver.
  Detailed listing of tasks and assigned k-points:
   Task     0 k-point     1 on ccs0109
   Task     1 k-point     1 on ccs0109
   Task     2 k-point     1 on ccs0109
   Task     3 k-point     2 on ccs0109
   Task     4 k-point     2 on ccs0109
   Task     5 k-point     3 on ccs0109
   Task     6 k-point     3 on ccs0109
   Task     7 k-point     3 on ccs0109
   Task     8 k-point     4 on ccs0109
   Task     9 k-point     4 on ccs0109
   Task    10 k-point     5 on ccs0109
   Task    11 k-point     5 on ccs0109
   Task    12 k-point     6 on ccs0109
   Task    13 k-point     6 on ccs0109
   Task    14 k-point     6 on ccs0109
   Task    15 k-point     7 on ccs0109
   Task    16 k-point     7 on ccs0109
   Task    17 k-point     8 on ccs0109
   Task    18 k-point     8 on ccs0109
   Task    19 k-point     9 on ccs0109
   Task    20 k-point     9 on ccs0109
   Task    21 k-point     9 on ccs0109
   Task    22 k-point    10 on ccs0109
   Task    23 k-point    10 on ccs0109
   Task    24 k-point    11 on ccs0109
   Task    25 k-point    11 on ccs0109
   Task    26 k-point    12 on ccs0109
   Task    27 k-point    12 on ccs0109
   Task    28 k-point    12 on ccs0109
   Task    29 k-point    13 on ccs0109
   Task    30 k-point    13 on ccs0109
   Task    31 k-point    14 on ccs0109
   Task    32 k-point    14 on ccs0109
   Task    33 k-point    15 on ccs0109
   Task    34 k-point    15 on ccs0109
   Task    35 k-point    15 on ccs0109
   Task    36 k-point    16 on ccs0109
   Task    37 k-point    16 on ccs0109
   Task    38 k-point    17 on ccs0109
   Task    39 k-point    17 on ccs0109
   Task    40 k-point    18 on ccs0117
   Task    41 k-point    18 on ccs0117
   Task    42 k-point    18 on ccs0117
   Task    43 k-point    19 on ccs0117
   Task    44 k-point    19 on ccs0117
   Task    45 k-point    20 on ccs0117
   Task    46 k-point    20 on ccs0117
   Task    47 k-point    20 on ccs0117
   Task    48 k-point    21 on ccs0117
   Task    49 k-point    21 on ccs0117
   Task    50 k-point    22 on ccs0117
   Task    51 k-point    22 on ccs0117
   Task    52 k-point    23 on ccs0117
   Task    53 k-point    23 on ccs0117
   Task    54 k-point    23 on ccs0117
   Task    55 k-point    24 on ccs0117
   Task    56 k-point    24 on ccs0117
   Task    57 k-point    25 on ccs0117
   Task    58 k-point    25 on ccs0117
   Task    59 k-point    26 on ccs0117
   Task    60 k-point    26 on ccs0117
   Task    61 k-point    26 on ccs0117
   Task    62 k-point    27 on ccs0117
   Task    63 k-point    27 on ccs0117
   Task    64 k-point    28 on ccs0117
   Task    65 k-point    28 on ccs0117
   Task    66 k-point    29 on ccs0117
   Task    67 k-point    29 on ccs0117
   Task    68 k-point    29 on ccs0117
   Task    69 k-point    30 on ccs0117
   Task    70 k-point    30 on ccs0117
   Task    71 k-point    31 on ccs0117
   Task    72 k-point    31 on ccs0117
   Task    73 k-point    32 on ccs0117
   Task    74 k-point    32 on ccs0117
   Task    75 k-point    32 on ccs0117
   Task    76 k-point    33 on ccs0117
   Task    77 k-point    33 on ccs0117
   Task    78 k-point    34 on ccs0117
   Task    79 k-point    34 on ccs0117
   Task    80 k-point    35 on ccs0125
   Task    81 k-point    35 on ccs0125
   Task    82 k-point    35 on ccs0125
   Task    83 k-point    36 on ccs0125
   Task    84 k-point    36 on ccs0125
   Task    85 k-point    37 on ccs0125
   Task    86 k-point    37 on ccs0125
   Task    87 k-point    37 on ccs0125
   Task    88 k-point    38 on ccs0125
   Task    89 k-point    38 on ccs0125
   Task    90 k-point    39 on ccs0125
   Task    91 k-point    39 on ccs0125
   Task    92 k-point    40 on ccs0125
   Task    93 k-point    40 on ccs0125
   Task    94 k-point    40 on ccs0125
   Task    95 k-point    41 on ccs0125
   Task    96 k-point    41 on ccs0125
   Task    97 k-point    42 on ccs0125
   Task    98 k-point    42 on ccs0125
   Task    99 k-point    43 on ccs0125
   Task   100 k-point    43 on ccs0125
   Task   101 k-point    43 on ccs0125
   Task   102 k-point    44 on ccs0125
   Task   103 k-point    44 on ccs0125
   Task   104 k-point    45 on ccs0125
   Task   105 k-point    45 on ccs0125
   Task   106 k-point    46 on ccs0125
   Task   107 k-point    46 on ccs0125
   Task   108 k-point    46 on ccs0125
   Task   109 k-point    47 on ccs0125
   Task   110 k-point    47 on ccs0125
   Task   111 k-point    48 on ccs0125
   Task   112 k-point    48 on ccs0125
   Task   113 k-point    49 on ccs0125
   Task   114 k-point    49 on ccs0125
   Task   115 k-point    49 on ccs0125
   Task   116 k-point    50 on ccs0125
   Task   117 k-point    50 on ccs0125
   Task   118 k-point    51 on ccs0125
   Task   119 k-point    51 on ccs0125
  K-point:     1 Tasks:     3 split into      3 X      1 BLACS grid
  Calculating block size based on n_basis =          784  max_nprow =            3  max_npcol =            1
  ScaLAPACK block size set to:           16
  Allocating        3.254 MB for ovlp_complex
  Allocating        3.254 MB for ham_complex
  Allocating        3.254 MB for eigenvec_complex
  Required Scalapack workspace - INTEGER:            1  REAL:             1  COMPLEX:            1
  Partitioning the integration grid into batches with parallel hashing+maxmin method.
  | Number of batches:     2895
  | Maximal batch size:     119
  | Minimal batch size:      50
  | Average batch size:      79.016
  | Standard deviation of batch sizes:      16.918

  Integration load balanced across   120 MPI tasks.
  Work distribution over tasks is as follows:
  Task     0 has       1922 integration points.
  Task     1 has       1867 integration points.
  Task     2 has       1870 integration points.
  Task     3 has       1889 integration points.
  Task     4 has       1921 integration points.
  Task     5 has       1870 integration points.
  Task     6 has       1886 integration points.
  Task     7 has       1886 integration points.
  Task     8 has       1951 integration points.
  Task     9 has       1881 integration points.
  Task    10 has       1873 integration points.
  Task    11 has       1885 integration points.
  Task    12 has       1896 integration points.
  Task    13 has       1900 integration points.
  Task    14 has       1953 integration points.
  Task    15 has       1888 integration points.
  Task    16 has       1949 integration points.
  Task    17 has       1944 integration points.
  Task    18 has       1924 integration points.
  Task    19 has       1886 integration points.
  Task    20 has       1872 integration points.
  Task    21 has       1955 integration points.
  Task    22 has       1916 integration points.
  Task    23 has       1888 integration points.
  Task    24 has       1868 integration points.
  Task    25 has       1944 integration points.
  Task    26 has       1944 integration points.
  Task    27 has       1898 integration points.
  Task    28 has       1920 integration points.
  Task    29 has       1884 integration points.
  Task    30 has       1923 integration points.
  Task    31 has       1923 integration points.
  Task    32 has       1923 integration points.
  Task    33 has       1886 integration points.
  Task    34 has       1879 integration points.
  Task    35 has       1884 integration points.
  Task    36 has       1868 integration points.
  Task    37 has       1947 integration points.
  Task    38 has       1869 integration points.
  Task    39 has       1926 integration points.
  Task    40 has       1945 integration points.
  Task    41 has       1954 integration points.
  Task    42 has       1953 integration points.
  Task    43 has       1883 integration points.
  Task    44 has       1868 integration points.
  Task    45 has       1916 integration points.
  Task    46 has       1924 integration points.
  Task    47 has       1955 integration points.
  Task    48 has       1882 integration points.
  Task    49 has       1870 integration points.
  Task    50 has       1900 integration points.
  Task    51 has       1872 integration points.
  Task    52 has       1946 integration points.
  Task    53 has       1920 integration points.
  Task    54 has       1888 integration points.
  Task    55 has       1948 integration points.
  Task    56 has       1901 integration points.
  Task    57 has       1882 integration points.
  Task    58 has       1945 integration points.
  Task    59 has       1887 integration points.
  Task    60 has       1889 integration points.
  Task    61 has       1924 integration points.
  Task    62 has       1888 integration points.
  Task    63 has       1872 integration points.
  Task    64 has       1951 integration points.
  Task    65 has       1954 integration points.
  Task    66 has       1869 integration points.
  Task    67 has       1870 integration points.
  Task    68 has       1951 integration points.
  Task    69 has       1918 integration points.
  Task    70 has       1886 integration points.
  Task    71 has       1957 integration points.
  Task    72 has       1890 integration points.
  Task    73 has       1897 integration points.
  Task    74 has       1954 integration points.
  Task    75 has       1866 integration points.
  Task    76 has       1867 integration points.
  Task    77 has       1883 integration points.
  Task    78 has       1885 integration points.
  Task    79 has       1899 integration points.
  Task    80 has       1943 integration points.
  Task    81 has       1925 integration points.
  Task    82 has       1945 integration points.
  Task    83 has       1880 integration points.
  Task    84 has       1953 integration points.
  Task    85 has       1872 integration points.
  Task    86 has       1916 integration points.
  Task    87 has       1872 integration points.
  Task    88 has       1870 integration points.
  Task    89 has       1900 integration points.
  Task    90 has       1901 integration points.
  Task    91 has       1880 integration points.
  Task    92 has       1947 integration points.
  Task    93 has       1883 integration points.
  Task    94 has       1955 integration points.
  Task    95 has       1888 integration points.
  Task    96 has       1897 integration points.
  Task    97 has       1942 integration points.
  Task    98 has       1871 integration points.
  Task    99 has       1897 integration points.
  Task   100 has       1919 integration points.
  Task   101 has       1903 integration points.
  Task   102 has       1869 integration points.
  Task   103 has       1866 integration points.
  Task   104 has       1940 integration points.
  Task   105 has       1886 integration points.
  Task   106 has       1870 integration points.
  Task   107 has       1945 integration points.
  Task   108 has       1873 integration points.
  Task   109 has       1882 integration points.
  Task   110 has       1952 integration points.
  Task   111 has       1912 integration points.
  Task   112 has       1927 integration points.
  Task   113 has       1953 integration points.
  Task   114 has       1882 integration points.
  Task   115 has       1922 integration points.
  Task   116 has       1868 integration points.
  Task   117 has       1949 integration points.
  Task   118 has       1883 integration points.
  Task   119 has       1947 integration points.
  Initializing partition tables, free-atom densities, potentials, etc. across the integration grid (initialize_grid_storage).
  | initialize_grid_storage: Actual outermost partition radius vs. multipole_radius_free
  | (-- VB: in principle, multipole_radius_free should be larger, hence this output)
  | Species        1: Confinement radius =              4.999999999999999 AA, multipole_radius_free =              5.050018377724275 AA.
  | Species        1: outer_partition_radius set to              5.050018377724275 AA .
  | Species        2: Confinement radius =              4.999999999999999 AA, multipole_radius_free =              5.048384829883283 AA.
  | Species        2: outer_partition_radius set to              5.048384829883283 AA .
  | The sparse table of interatomic distances needs       1948.20 kbyte instead of      5537.79 kbyte of memory.
  | Net number of integration points:   228752
  | of which are non-zero points    :   192269
  | Numerical average free-atom electrostatic potential    :    -16.32534041 eV
  Renormalizing the initial density to the exact electron count on the 3D integration grid.
  | Initial density: Formal number of electrons (from input files) :     784.0000000000
  | Integrated number of electrons on 3D grid     :     783.9979899076
  | Charge integration error                      :      -0.0020100924
  | Normalization factor for density and gradient :       1.0000025639
  Renormalizing the free-atom superposition density to the exact electron count on the 3D integration grid.
  | Formal number of electrons (from input files) :     784.0000000000
  | Integrated number of electrons on 3D grid     :     783.9979899076
  | Charge integration error                      :      -0.0020100924
  | Normalization factor for density and gradient :       1.0000025639
  Obtaining max. number of non-zero basis functions in each batch (get_n_compute_maxes).
  | Maximal number of non-zero basis functions:      686 in task     0
  | Maximal number of non-zero basis functions:      725 in task     1
  | Maximal number of non-zero basis functions:      698 in task     2
  | Maximal number of non-zero basis functions:      696 in task     3
  | Maximal number of non-zero basis functions:      697 in task     4
  | Maximal number of non-zero basis functions:      679 in task     5
  | Maximal number of non-zero basis functions:      684 in task     6
  | Maximal number of non-zero basis functions:      673 in task     7
  | Maximal number of non-zero basis functions:      677 in task     8
  | Maximal number of non-zero basis functions:      682 in task     9
  | Maximal number of non-zero basis functions:      683 in task    10
  | Maximal number of non-zero basis functions:      728 in task    11
  | Maximal number of non-zero basis functions:      677 in task    12
  | Maximal number of non-zero basis functions:      670 in task    13
  | Maximal number of non-zero basis functions:      697 in task    14
  | Maximal number of non-zero basis functions:      696 in task    15
  | Maximal number of non-zero basis functions:      693 in task    16
  | Maximal number of non-zero basis functions:      659 in task    17
  | Maximal number of non-zero basis functions:      715 in task    18
  | Maximal number of non-zero basis functions:      684 in task    19
  | Maximal number of non-zero basis functions:      665 in task    20
  | Maximal number of non-zero basis functions:      703 in task    21
  | Maximal number of non-zero basis functions:      687 in task    22
  | Maximal number of non-zero basis functions:      700 in task    23
  | Maximal number of non-zero basis functions:      699 in task    24
  | Maximal number of non-zero basis functions:      681 in task    25
  | Maximal number of non-zero basis functions:      695 in task    26
  | Maximal number of non-zero basis functions:      679 in task    27
  | Maximal number of non-zero basis functions:      684 in task    28
  | Maximal number of non-zero basis functions:      689 in task    29
  | Maximal number of non-zero basis functions:      713 in task    30
  | Maximal number of non-zero basis functions:      696 in task    31
  | Maximal number of non-zero basis functions:      678 in task    32
  | Maximal number of non-zero basis functions:      691 in task    33
  | Maximal number of non-zero basis functions:      701 in task    34
  | Maximal number of non-zero basis functions:      679 in task    35
  | Maximal number of non-zero basis functions:      674 in task    36
  | Maximal number of non-zero basis functions:      698 in task    37
  | Maximal number of non-zero basis functions:      727 in task    38
  | Maximal number of non-zero basis functions:      668 in task    39
  | Maximal number of non-zero basis functions:      677 in task    40
  | Maximal number of non-zero basis functions:      697 in task    41
  | Maximal number of non-zero basis functions:      682 in task    42
  | Maximal number of non-zero basis functions:      682 in task    43
  | Maximal number of non-zero basis functions:      702 in task    44
  | Maximal number of non-zero basis functions:      708 in task    45
  | Maximal number of non-zero basis functions:      687 in task    46
  | Maximal number of non-zero basis functions:      694 in task    47
  | Maximal number of non-zero basis functions:      703 in task    48
  | Maximal number of non-zero basis functions:      679 in task    49
  | Maximal number of non-zero basis functions:      677 in task    50
  | Maximal number of non-zero basis functions:      681 in task    51
  | Maximal number of non-zero basis functions:      674 in task    52
  | Maximal number of non-zero basis functions:      692 in task    53
  | Maximal number of non-zero basis functions:      695 in task    54
  | Maximal number of non-zero basis functions:      696 in task    55
  | Maximal number of non-zero basis functions:      682 in task    56
  | Maximal number of non-zero basis functions:      704 in task    57
  | Maximal number of non-zero basis functions:      691 in task    58
  | Maximal number of non-zero basis functions:      675 in task    59
  | Maximal number of non-zero basis functions:      704 in task    60
  | Maximal number of non-zero basis functions:      690 in task    61
  | Maximal number of non-zero basis functions:      698 in task    62
  | Maximal number of non-zero basis functions:      685 in task    63
  | Maximal number of non-zero basis functions:      685 in task    64
  | Maximal number of non-zero basis functions:      689 in task    65
  | Maximal number of non-zero basis functions:      674 in task    66
  | Maximal number of non-zero basis functions:      688 in task    67
  | Maximal number of non-zero basis functions:      684 in task    68
  | Maximal number of non-zero basis functions:      688 in task    69
[...]
    384       2.00000          -0.362425           -9.86208
    385       2.00000          -0.358504           -9.75539
    386       2.00000          -0.355587           -9.67601
    387       2.00000          -0.331593           -9.02311
    388       2.00000          -0.330610           -8.99635
    389       2.00000          -0.329647           -8.97016
    390       2.00000          -0.327892           -8.92240
    391       2.00000          -0.325347           -8.85316
    392       2.00000          -0.325296           -8.85175
    393       0.00000          -0.245016           -6.66722
    394       0.00000          -0.243460           -6.62487
    395       0.00000          -0.231859           -6.30919
    396       0.00000          -0.229575           -6.24706
    397       0.00000          -0.217107           -5.90778
    398       0.00000          -0.213393           -5.80672
    399       0.00000          -0.160103           -4.35663
    400       0.00000          -0.156486           -4.25820
    401       0.00000          -0.154308           -4.19894
    402       0.00000          -0.150252           -4.08855
    403       0.00000          -0.148978           -4.05391
    404       0.00000          -0.145959           -3.97176
    405       0.00000          -0.142919           -3.88903
    406       0.00000          -0.139107           -3.78530
    407       0.00000          -0.134920           -3.67137
    408       0.00000          -0.133113           -3.62218
    409       0.00000          -0.126355           -3.43830
    410       0.00000          -0.119157           -3.24243
    411       0.00000          -0.116306           -3.16484
    412       0.00000          -0.112440           -3.05964
    413       0.00000          -0.108577           -2.95453
    414       0.00000          -0.108430           -2.95053
    415       0.00000          -0.098189           -2.67187
    416       0.00000          -0.092793           -2.52503
    417       0.00000          -0.074235           -2.02002
    418       0.00000          -0.069708           -1.89686
    419       0.00000          -0.064433           -1.75331
    420       0.00000          -0.058060           -1.57990
    421       0.00000          -0.057888           -1.57520
    422       0.00000          -0.037831           -1.02943
    423       0.00000          -0.035623           -0.96934
    424       0.00000          -0.030049           -0.81769
    425       0.00000          -0.027245           -0.74138
    426       0.00000           0.004038            0.10987
    427       0.00000           0.011635            0.31662
    428       0.00000           0.015302            0.41639
    429       0.00000           0.090400            2.45991
    430       0.00000           0.113194            3.08017
    431       0.00000           0.117565            3.19910
    432       0.00000           0.124457            3.38663
    433       0.00000           0.133146            3.62309
    434       0.00000           0.134149            3.65039
    435       0.00000           0.136315            3.70931
    436       0.00000           0.139599            3.79867
    437       0.00000           0.140250            3.81638
    438       0.00000           0.159002            4.32666
    439       0.00000           0.160341            4.36311
    440       0.00000           0.198890            5.41206
    441       0.00000           0.210165            5.71888
    442       0.00000           0.214308            5.83162
    443       0.00000           0.215694            5.86934
    444       0.00000           0.219204            5.96485
    445       0.00000           0.225091            6.12505
    446       0.00000           0.226113            6.15285
    447       0.00000           0.237156            6.45335
    448       0.00000           0.237898            6.47354
    449       0.00000           0.239771            6.52451
    450       0.00000           0.253859            6.90785
    451       0.00000           0.275366            7.49310
    452       0.00000           0.283290            7.70871
    453       0.00000           0.284424            7.73957
    454       0.00000           0.288367            7.84687
    455       0.00000           0.291503            7.93221
    456       0.00000           0.298303            8.11724
    457       0.00000           0.316779            8.62000
    458       0.00000           0.318615            8.66997
    459       0.00000           0.330245            8.98642
    460       0.00000           0.337301            9.17843
    461       0.00000           0.348102            9.47234
    462       0.00000           0.351765            9.57202
    463       0.00000           0.353942            9.63125
    464       0.00000           0.357452            9.72675
    465       0.00000           0.372752           10.14310
    466       0.00000           0.398964           10.85637
    467       0.00000           0.401956           10.93778
    468       0.00000           0.409871           11.15317
    469       0.00000           0.412374           11.22126
    470       0.00000           0.413272           11.24571
    471       0.00000           0.415492           11.30611
    472       0.00000           0.422592           11.49932
    473       0.00000           0.422698           11.50220
    474       0.00000           0.428015           11.64689
    475       0.00000           0.430788           11.72233
    476       0.00000           0.433673           11.80084
    477       0.00000           0.436876           11.88800
    478       0.00000           0.441891           12.02447
    479       0.00000           0.455349           12.39068
    480       0.00000           0.461525           12.55875
    481       0.00000           0.465275           12.66077
    482       0.00000           0.466728           12.70032
    483       0.00000           0.474981           12.92488
    484       0.00000           0.492026           13.38872
    485       0.00000           0.506374           13.77913
    486       0.00000           0.513064           13.96119
    487       0.00000           0.514651           14.00438
    488       0.00000           0.533340           14.51293
    489       0.00000           0.544201           14.80847
    490       0.00000           0.546236           14.86383
    491       0.00000           0.549218           14.94499
    492       0.00000           0.550408           14.97736
    493       0.00000           0.557462           15.16931
    494       0.00000           0.563359           15.32978
    495       0.00000           0.568209           15.46175
    496       0.00000           0.580417           15.79395
    497       0.00000           0.582472           15.84988
    498       0.00000           0.584277           15.89897
    499       0.00000           0.596731           16.23786
    500       0.00000           0.598655           16.29023
    501       0.00000           0.608295           16.55255
    502       0.00000           0.625031           17.00797
    503       0.00000           0.640642           17.43276
    504       0.00000           0.644112           17.52717
    505       0.00000           0.655611           17.84009
    506       0.00000           0.656066           17.85246
    507       0.00000           0.656295           17.85871
    508       0.00000           0.666378           18.13306
    509       0.00000           0.686234           18.67337
    510       0.00000           0.688386           18.73193
    511       0.00000           0.689494           18.76208
    512       0.00000           0.691323           18.81185
    513       0.00000           0.707965           19.26470
    514       0.00000           0.711266           19.35453
    515       0.00000           0.724915           19.72595
    516       0.00000           0.730405           19.87533
    517       0.00000           0.733837           19.96872
    518       0.00000           0.744035           20.24621
    519       0.00000           0.754712           20.53677
    520       0.00000           0.756942           20.59745
    521       0.00000           0.758455           20.63862
    522       0.00000           0.769153           20.92971
    523       0.00000           0.770878           20.97666
    524       0.00000           0.772292           21.01514
    525       0.00000           0.794349           21.61533
    526       0.00000           0.797470           21.70027
    527       0.00000           0.799013           21.74226
    528       0.00000           0.800093           21.77165
    529       0.00000           0.809064           22.01575
    530       0.00000           0.809569           22.02949
    531       0.00000           0.819199           22.29153
    532       0.00000           0.844044           22.96760
    533       0.00000           0.852189           23.18923
    534       0.00000           0.856049           23.29427
    535       0.00000           0.867452           23.60458
    536       0.00000           0.881468           23.98596

  What follows are estimated values for band gap, HOMO, LUMO, etc.
  | They are estimated on a discrete k-point grid and not necessarily exact.
  | For converged numbers, create a DOS and/or band structure plot on a denser k-grid.

  Highest occupied state (VBM) at     -8.85175187 eV (relative to internal zero)
  | Occupation number:      2.00000000
  | K-point:       1 at    0.000000    0.000000    0.000000 (in units of recip. lattice)

  Lowest unoccupied state (CBM) at    -6.66722271 eV (relative to internal zero)
  | Occupation number:      0.00000001
  | K-point:       1 at    0.000000    0.000000    0.000000 (in units of recip. lattice)

  ESTIMATED overall HOMO-LUMO gap:      2.18452916 eV between HOMO at k-point 1 and LUMO at k-point 1
  | This appears to be a direct band gap.
  The gap value is above 0.2 eV. Unless you are using a very sparse k-point grid,
  this system is most likely an insulator or a semiconductor.
  | Chemical Potential                          :    -7.07196795 eV

  Self-consistency cycle converged.


------------------------------------------------------------
  End self-consistency iteration #    14       :  max(cpu_time)    wall_clock(cpu1)
  | Time for this iteration                    :        6.254 s           6.287 s
  | Charge density & force component update    :        4.489 s           4.500 s
  | Density mixing                             :        0.011 s           0.002 s
  | Hartree multipole update                   :        0.003 s           0.004 s
  | Hartree multipole summation                :        0.615 s           0.616 s
  | Hartree pot. SCF incomplete forces         :        0.339 s           0.339 s
  | Integration                                :        0.345 s           0.346 s
  | Solution of K.-S. eqns.                    :        0.446 s           0.447 s
  | Total energy evaluation                    :        0.004 s           0.003 s

  Partial memory accounting:
  | Current value for overall tracked memory usage:
  |   Minimum:       25.833 MB (on task   1)
  |   Maximum:       32.723 MB (on task   3)
  |   Average:       29.527 MB
  | Peak value for overall tracked memory usage:
  |   Minimum:       48.096 MB (on task  35 after allocating wave)
  |   Maximum:       56.054 MB (on task 104 after allocating wave)
  |   Average:       52.156 MB
  | Largest tracked array allocation so far:
  |   Minimum:       10.602 MB (overlap_matrix on task   0)
  |   Maximum:       10.602 MB (overlap_matrix on task   0)
  |   Average:       10.602 MB
  Note:  These values currently only include a subset of arrays which are explicitly tracked.
  The "true" memory usage will be greater.
------------------------------------------------------------
  Removing unitary transformations (pure translations, rotations) from forces on atoms.
  Atomic forces before filtering:
  | Net force on center of mass :   0.139170E-04 -0.458089E-04 -0.357600E-04 eV/A
  Atomic forces after filtering:
  | Net force on center of mass :  -0.104535E-17  0.487829E-17  0.278760E-17 eV/A

  Energy and forces in a compact form:
  | Total energy uncorrected      :         -0.367303103800601E+07 eV
  | Total energy corrected        :         -0.367303103800601E+07 eV  <-- do not rely on this value for anything but (periodic) metals
  | Electronic free energy        :         -0.367303103800601E+07 eV
  Total atomic forces (unitary forces cleaned) [eV/Ang]:
  |    1         -0.289582400633567E-02          0.276151400077277E-02          0.162353643589804E-01
  |    2         -0.281768558286188E-02         -0.258850558912344E-02          0.159729136717202E-01
  |    3          0.285265662592180E-02         -0.261833555159508E-02         -0.161565977189889E-01
  |    4          0.272780623570301E-02          0.238945435313136E-02         -0.156219854891056E-01
  |    5          0.514498899428235E-02          0.151057719689618E-02          0.146844106390483E-01
  |    6          0.520765678614181E-02         -0.167023631809694E-02          0.149116153167539E-01
  |    7         -0.513842802964152E-02         -0.161272967883390E-02         -0.147800683464047E-01
  |    8         -0.528124891780632E-02          0.174125347600534E-02         -0.152846726461873E-01
  |    9         -0.352634709959808E-02         -0.441099182656647E-03         -0.542510421794036E-02
  |   10         -0.349930336385667E-02          0.451645540034263E-03         -0.539030237186449E-02
  |   11          0.352097821602446E-02          0.441384479141678E-03          0.543957910198604E-02
  |   12          0.346948350512876E-02         -0.442146627104785E-03          0.540806530021169E-02
  |   13         -0.175329944407859E-02         -0.321335053710938E-03         -0.437618000802480E-02
  |   14         -0.169130626603347E-02          0.338560984730683E-03         -0.434847388535166E-02
  |   15          0.175019287640457E-02          0.334817257340846E-03          0.438041923023313E-02
  |   16          0.172737148437147E-02         -0.336521052628130E-03          0.435413809124883E-02
  |   17          0.268791096098105E-02          0.109195273226180E-01          0.230322882920929E-02
  |   18          0.265517642658373E-02         -0.109598986231939E-01          0.232986420381972E-02
  |   19         -0.267040436650803E-02         -0.109548350770460E-01         -0.232028178345976E-02
  |   20         -0.263274457869646E-02          0.110129625355170E-01         -0.235340225813792E-02
  |   21         -0.173070688265562E-02          0.762134893914719E-02         -0.177106597359619E-02
  |   22         -0.172735381059924E-02         -0.755090698894085E-02         -0.181478142340064E-02
  |   23          0.174070514265376E-02         -0.760250313774590E-02          0.180326037710674E-02
  |   24          0.173869039966735E-02          0.753056368529211E-02          0.185142959476006E-02
  |   25         -0.192168795759020E-02         -0.105638869724834E-01         -0.193529916575188E-01
  |   26         -0.194738937208525E-02          0.105710050614424E-01         -0.194355165743265E-01
  |   27          0.193069467457923E-02          0.105665319564231E-01          0.193834042141108E-01
  |   28          0.199960996699643E-02         -0.105653505650691E-01          0.197151101400767E-01
  |   29          0.168795649586934E-02         -0.323475171468508E-02          0.206924087029896E-01
  |   30          0.161176989871100E-02          0.329165237280862E-02          0.210428430691188E-01
  |   31         -0.162371201737440E-02          0.328012305398615E-02         -0.209939035320941E-01
  |   32         -0.159620699429868E-02         -0.329988008237342E-02         -0.210827269549726E-01

  ------------------------------------ 
  Start decomposition of the XC Energy 
  ------------------------------------ 
  X and C from original XC functional choice 
  Hartree-Fock Energy :          0.000000000 Ha              0.000000000 eV
  X Energy            :      -2863.305921324 Ha         -77914.518366271 eV
  C Energy            :        -47.975823080 Ha          -1305.488568535 eV
  Total XC Energy     :      -2911.281744404 Ha         -79220.006934806 eV
  ------------------------------------ 
  LDA X and C from self-consistent density 
  X Energy LDA        :      -2659.053849205 Ha         -72356.536696919 eV
  C Energy LDA        :        -74.890156652 Ha          -2037.864847913 eV
  ------------------------------------ 
  End decomposition of the XC Energy 
  ------------------------------------ 

------------------------------------------------------------
  Relaxation / MD: End force evaluation.       :  max(cpu_time)    wall_clock(cpu1)
  | Time for this force evaluation             :       35.630 s          36.856 s

------------------------------------------------------------
  Geometry optimization: Attempting to predict improved coordinates.

  Removing unitary transformations (pure translations, rotations) from forces on atoms.
  Atomic forces before filtering:
  | Net force on center of mass :  -0.104535E-17  0.487829E-17  0.278760E-17 eV/A
  Atomic forces after filtering:
  | Net force on center of mass :  -0.104535E-17 -0.696899E-18  0.278760E-17 eV/A
  Net remaining forces (excluding translations, rotations) in present geometry:
  || Forces on atoms   || =   0.210827E-01 eV/A.
  Maximum force component is  0.210827E-01 eV/A.
  Present geometry is not yet converged.

  Relaxation step number      7: Predicting new coordinates.

  Advancing geometry using trust radius method.
  | True / expected gain:  1.04E-03 eV / -2.19E-04 eV =   -4.7311
  | Harmonic / expected gain: -3.26E-04 eV / -2.19E-04 eV =    1.4850
  | Using harmonic gain <DX|-(F0+F1)/2> instead of DE to judge step.
  ** Inconsistency of forces<->energy above specified tolerance.
  ** Specifically, we have:
  ** True total energy step DE (positive means uphill) :   1.04E-03 eV.
  ** Current 'energy_tolerance' value for uphill steps :   1.00E-03 eV.
  ** Expected energy gain based on harmonic approximation: <DX | -(F0+F1)/2> /= DE:
  **                 2.28E-02 A x -1.43E-02 eV/A = -3.26E-04 eV /=  1.04E-03 eV.
  ** In principle, there should be no such inconsistencies.
  ** In fact, it is possible that the relaxation algorithm mis-estimated and
  ** that a simple restart of the relaxation is all that is needed.
  ** We recommend to proceed as follows:
  **
  ** (1) Simply continue the calculation by copying the "geometry.in.next_step" file
  **     produced in the last relaxation step to "geometry.in" and restarting FHI-aims.
  **
  ** (2) Use the "get_relaxation_info.pl" script found in the "utilities" folder to
  **    monitor the progress of the relaxation. This will tell you if the relaxation is
  **    proceeding downwards in energy (the forces can fluctuate but the energy should generally go down).
  **
  ** (3) The tolerances of the standard relaxation algorithms can be increased to ignore
  **     larger inconsistencies. To try this, increase "energy_tolerance" or
  **     decrease "harmonic_length_scale".
  **
  ** (4) The initial guess for the second derivative (Hessian matrix) of the energy landscape
  **     may not reflect your system well. The "init_hess" keyword can be used to specify
  **     a more conservative initial guess. For example, "init_hess diag 0.97" is a rather
  **     conservative choice.
  **
  **     Please also simply contact us for help and advice, especially if you see this
  **     error message too often despite the steps outlined above. If there is a real
  **     force-energy inconsistency, we would like to know about it.
  **
 *** trusted_descent: Numerical inconsistency of forces and energy above energy_tolerance.
 *** trusted_descent: Numerical inconsistency of forces and energy above energy_tolerance.
