------------------------------------------------------------
          Invoking FHI-aims ...

          When using FHI-aims, please cite the following reference:

            Volker Blum, Ralf Gehrke, Felix Hanke, Paula Havu,
            Ville Havu, Xinguo Ren, Karsten Reuter, and Matthias Scheffler,
            'Ab Initio Molecular Simulations with Numeric Atom-Centered Orbitals',
            Computer Physics Communications 180, 2175-2196 (2009)

          In addition, many other developments in FHI-aims are likely important for
          your particular application. A partial list of references is given at the end of
          this file. Thank you for giving credit to the authors of these developments.

          For any questions about FHI-aims, please visit our slack channel at

            https://fhi-aims.slack.com

          and our main development and support site at

            https://aims-git.rz-berlin.mpg.de .

          The latter site, in particular, has a wiki to collect information, as well
          as an issue tracker to log discussions, suggest improvements, and report issues
          or bugs. https://aims-git.rz-berlin.mpg.de is also the main development site
          of the project and all new and updated code versions can be obtained there.
          Please send an email to aims-coordinators@fhi-berlin.mpg.de and we will add
          you to these sites. They are for you and everyone is welcome there.

------------------------------------------------------------



  Date     :  20240503, Time     :  190356.871
  Time zero on CPU 1             :   0.296426000000000E+00  s.
  Internal wall clock time zero  :           483995036.871  s.

  FHI-aims created a unique identifier for this run for later identification
  aims_uuid : C2194229-8560-4E4C-AC13-F139C312A857

  Build configuration of the current instance of FHI-aims
  -------------------------------------------------------
  FHI-aims version      : 210309
  Commit number         : 8cf946fba
  CMake host system     : Linux-3.10.0-1127.13.1.el7.x86_64
  CMake version         : 3.17.3
  Fortran compiler      : /apps/compilers/intel/2018.2/compilers_and_libraries_2018/linux/mpi/intel64/bin/mpiifort (Intel) version 18.0.2.20180210
  Fortran compiler flags: -O3 -fp-model precise
  C compiler            : /apps/compilers/intel/2018.2/compilers_and_libraries_2018/linux/mpi/intel64/bin/mpicc (Intel) version 18.0.2.20180210
  C compiler flags      : -O3 -ip -fp-model precise -std=gnu99
  Using MPI
  Using ScaLAPACK
  Using LibXC
  Using i-PI
  Using RLSY
  Linking against: /apps/compilers/intel/2018.2/compilers_and_libraries_2018/linux/mkl/lib/intel64/libmkl_scalapack_lp64.so
                   /apps/compilers/intel/2018.2/compilers_and_libraries_2018/linux/mkl/lib/intel64/libmkl_blacs_intelmpi_lp64.so
                   /apps/compilers/intel/2018.2/compilers_and_libraries_2018/linux/mkl/lib/intel64/libmkl_intel_lp64.so
                   /apps/compilers/intel/2018.2/compilers_and_libraries_2018/linux/mkl/lib/intel64/libmkl_intel_thread.so
                   /apps/compilers/intel/2018.2/compilers_and_libraries_2018/linux/mkl/lib/intel64/libmkl_core.so
                   /usr/lib64/libpthread.so
                   /home/scw1057/software/libxc/libxc-4.3.4/lib/libxcf03.so
                   /home/scw1057/software/libxc/libxc-4.3.4/lib/libxcf90.so
                   /home/scw1057/software/libxc/libxc-4.3.4/lib/libxc.so

  Using       80 parallel tasks.
  Task        0 on host ccs0097 reporting.
  Task        1 on host ccs0097 reporting.
  Task        2 on host ccs0097 reporting.
  Task        3 on host ccs0097 reporting.
  Task        4 on host ccs0097 reporting.
  Task        5 on host ccs0097 reporting.
  Task        6 on host ccs0097 reporting.
  Task        7 on host ccs0097 reporting.
  Task        8 on host ccs0097 reporting.
  Task        9 on host ccs0097 reporting.
  Task       10 on host ccs0097 reporting.
  Task       11 on host ccs0097 reporting.
  Task       12 on host ccs0097 reporting.
  Task       13 on host ccs0097 reporting.
  Task       14 on host ccs0097 reporting.
  Task       15 on host ccs0097 reporting.
  Task       16 on host ccs0097 reporting.
  Task       17 on host ccs0097 reporting.
  Task       18 on host ccs0097 reporting.
  Task       19 on host ccs0097 reporting.
  Task       20 on host ccs0097 reporting.
  Task       21 on host ccs0097 reporting.
  Task       22 on host ccs0097 reporting.
  Task       23 on host ccs0097 reporting.
  Task       24 on host ccs0097 reporting.
  Task       25 on host ccs0097 reporting.
  Task       26 on host ccs0097 reporting.
  Task       27 on host ccs0097 reporting.
  Task       28 on host ccs0097 reporting.
  Task       29 on host ccs0097 reporting.
  Task       30 on host ccs0097 reporting.
  Task       31 on host ccs0097 reporting.
  Task       32 on host ccs0097 reporting.
  Task       33 on host ccs0097 reporting.
  Task       34 on host ccs0097 reporting.
  Task       35 on host ccs0097 reporting.
  Task       36 on host ccs0097 reporting.
  Task       37 on host ccs0097 reporting.
  Task       38 on host ccs0097 reporting.
  Task       39 on host ccs0097 reporting.
  Task       40 on host ccs0105 reporting.
  Task       41 on host ccs0105 reporting.
  Task       42 on host ccs0105 reporting.
  Task       43 on host ccs0105 reporting.
  Task       44 on host ccs0105 reporting.
  Task       45 on host ccs0105 reporting.
  Task       46 on host ccs0105 reporting.
  Task       47 on host ccs0105 reporting.
  Task       48 on host ccs0105 reporting.
  Task       49 on host ccs0105 reporting.
  Task       50 on host ccs0105 reporting.
  Task       51 on host ccs0105 reporting.
  Task       52 on host ccs0105 reporting.
  Task       53 on host ccs0105 reporting.
  Task       54 on host ccs0105 reporting.
  Task       55 on host ccs0105 reporting.
  Task       56 on host ccs0105 reporting.
  Task       57 on host ccs0105 reporting.
  Task       58 on host ccs0105 reporting.
  Task       59 on host ccs0105 reporting.
  Task       60 on host ccs0105 reporting.
  Task       61 on host ccs0105 reporting.
  Task       62 on host ccs0105 reporting.
  Task       63 on host ccs0105 reporting.
  Task       64 on host ccs0105 reporting.
  Task       65 on host ccs0105 reporting.
  Task       66 on host ccs0105 reporting.
  Task       67 on host ccs0105 reporting.
  Task       68 on host ccs0105 reporting.
  Task       69 on host ccs0105 reporting.
  Task       70 on host ccs0105 reporting.
  Task       71 on host ccs0105 reporting.
  Task       72 on host ccs0105 reporting.
  Task       73 on host ccs0105 reporting.
  Task       74 on host ccs0105 reporting.
  Task       75 on host ccs0105 reporting.
  Task       76 on host ccs0105 reporting.
  Task       77 on host ccs0105 reporting.
  Task       78 on host ccs0105 reporting.
  Task       79 on host ccs0105 reporting.

  Performing system and environment tests:
  *** Environment variable OMP_NUM_THREADS is not set
  *** For performance reasons you might want to set it to 1
  | Checking for ScaLAPACK...
  | Testing pdtran()...
  | All pdtran() tests passed.

  Obtaining array dimensions for all initial allocations:
  
  -----------------------------------------------------------------------
  Parsing control.in (first pass over file, find array dimensions only).
  The contents of control.in will be repeated verbatim below
  unless switched off by setting 'verbatim_writeout .false.' .
  in the first line of control.in .
  -----------------------------------------------------------------------
  
  #===============================================================================
  # FHI-aims file: ./control.in
  # Created using the Atomic Simulation Environment (ASE)
  # Fri May  3 19:03:54 2024
  #===============================================================================
  spin                               none
  relativistic                       atomic_zora scalar
  compute_forces                     .true.
  override_warning_libxc             true
  xc                                 libxc MGGA_X_MBEEF+GGA_C_PBE_SOL
  k_grid                             4 5 5
  occupation_type                    gaussian 0.1
  plus_u_petukhov_mixing             1
  sc_accuracy_etot                   1e-06
  sc_accuracy_eev                    0.001
  sc_accuracy_rho                    1e-06
  sc_accuracy_forces                 0.0001
  #===============================================================================
  
  ################################################################################
  #
  #  FHI-aims code project
  #  VB, Fritz-Haber Institut, 2009
  #
  #  Suggested "light" defaults for W atom (to be pasted into control.in file)
  #  Be sure to double-check any results obtained with these settings for post-processing,
  #  e.g., with the "tight" defaults and larger basis sets.
  #
  ################################################################################
    species          W
  #     global species definitions
      nucleus        74
      mass           183.84
  #
      l_hartree      4
  #
      cut_pot        3.5  1.5  1.0
      basis_dep_cutoff    1e-4
  #
      radial_base    71  5.0
      radial_multiplier  1
      angular_grids specified
        division   0.3522   50
        division   0.9662  110
        division   1.2839  194
        division   1.5443  302
  #      division   1.7847  434
  #      division   2.0413  590
  #      division   2.1047  770
  #      division   2.1708  974
  #      division   2.7309 1202
  #      outer_grid  974
        outer_grid  302
  ################################################################################
  #
  #  Definition of "minimal" basis
  #
  ################################################################################
  #     valence basis states
      valence      6  s   2.
      valence      5  p   6.
      valence      5  d   4.
      valence      4  f  14.
  #     ion occupancy
      ion_occ      6  s   1.
      ion_occ      5  p   6.
      ion_occ      5  d   3.
      ion_occ      4  f  14.
  ################################################################################
  #
  #  Suggested additional basis functions. For production calculations,
  #  uncomment them one after another (the most important basis functions are
  #  listed first).
  #
  #  Constructed for dimers: 1.775, 1.99, 2.50, 3.25, 4.50 AA
  #
  ################################################################################
  #
  #  "First tier" - improvements: -603.77 meV to -28.99 meV
       hydro 4 f 7.8
       hydro 4 d 5.8
       ionic 6 p auto
  #     hydro 5 g 12.4
       ionic 6 s auto
  #  "Second tier" - improvements: -28.30 meV to -1.31 meV
  #     hydro 6 h 16.8
  #     ionic 5 d auto
  #     hydro 4 f 8.6
  #     hydro 5 g 16.8
  #     hydro 5 d 8.4
  #     hydro 3 p 3.3
  #     hydro 1 s 0.55
  #  "Third tier" - max. impr. -1.79 meV, min. impr. -0.26 meV
  #     hydro 5 f 10.8
  #     hydro 5 g 34.4
  #     hydro 6 h 20.8
  #     hydro 5 g 12.8
  #     hydro 2 p 1.6
  #     hydro 4 s 4.7
  #     hydro 6 d 18.4
  #  "Fourth tier" -0.46 max. impr. - meV, min. impr. -0.09 meV
  #     hydro 6 h 21.6
  #     hydro 5 f 22.4
  #     hydro 4 f 4
  #     hydro 5 p 9.6
  #     hydro 6 d 17.2
  #     hydro 3 p 5.2
  #     hydro 5 g 4.7
  #     hydro 6 s 7.6
  plus_u 5 d 0
  ################################################################################
  #
  #  FHI-aims code project
  #  VB, Fritz-Haber Institut, 2009
  #
  #  Suggested "light" defaults for O atom (to be pasted into control.in file)
  #  Be sure to double-check any results obtained with these settings for post-processing,
  #  e.g., with the "tight" defaults and larger basis sets.
  #
  ################################################################################
    species        O
  #     global species definitions
      nucleus             8
      mass                15.9994
  #
      l_hartree           4
  #
      cut_pot             3.5  1.5  1.0
      basis_dep_cutoff    1e-4
  #
      radial_base         36 5.0
      radial_multiplier   1
       angular_grids specified
        division   0.2659   50
        division   0.4451  110
        division   0.6052  194
        division   0.7543  302
  #      division   0.8014  434
  #      division   0.8507  590
  #      division   0.8762  770
  #      division   0.9023  974
  #      division   1.2339 1202
  #      outer_grid 974
        outer_grid 302
  ################################################################################
  #
  #  Definition of "minimal" basis
  #
  ################################################################################
  #     valence basis states
      valence      2  s   2.
      valence      2  p   4.
  #     ion occupancy
      ion_occ      2  s   1.
      ion_occ      2  p   3.
  ################################################################################
  #
  #  Suggested additional basis functions. For production calculations,
  #  uncomment them one after another (the most important basis functions are
  #  listed first).
  #
  #  Constructed for dimers: 1.0 A, 1.208 A, 1.5 A, 2.0 A, 3.0 A
  #
  ################################################################################
  #  "First tier" - improvements: -699.05 meV to -159.38 meV
       hydro 2 p 1.8
       hydro 3 d 7.6
       hydro 3 s 6.4
  #  "Second tier" - improvements: -49.91 meV to -5.39 meV
  #     hydro 4 f 11.6
  #     hydro 3 p 6.2
  #     hydro 3 d 5.6
  #     hydro 5 g 17.6
  #     hydro 1 s 0.75
  #  "Third tier" - improvements: -2.83 meV to -0.50 meV
  #     ionic 2 p auto
  #     hydro 4 f 10.8
  #     hydro 4 d 4.7
  #     hydro 2 s 6.8
  #  "Fourth tier" - improvements: -0.40 meV to -0.12 meV
  #     hydro 3 p 5
  #     hydro 3 s 3.3
  #     hydro 5 g 15.6
  #     hydro 4 f 17.6
  #     hydro 4 d 14
  # Further basis functions - -0.08 meV and below
  #     hydro 3 s 2.1
  #     hydro 4 d 11.6
  #     hydro 3 p 16
  #     hydro 2 s 17.2
  plus_u 2 p 0
  
  -----------------------------------------------------------------------
  Completed first pass over input file control.in .
  -----------------------------------------------------------------------
  
  
  -----------------------------------------------------------------------
  Parsing geometry.in (first pass over file, find array dimensions only).
  The contents of geometry.in will be repeated verbatim below
  unless switched off by setting 'verbatim_writeout .false.' .
  in the first line of geometry.in .
  -----------------------------------------------------------------------
  
  #=======================================================
  # FHI-aims file: ./geometry.in
  # Created using the Atomic Simulation Environment (ASE)
  # Fri May  3 19:03:54 2024
  #=======================================================
  lattice_vector 7.3258200000000002 0.0000000000000000 0.0000000000000000
  lattice_vector 0.0000000000000000 7.5476700000000001 0.0000000000000000
  lattice_vector -0.0913152982390541 0.0000000000000000 7.7107393131078892
  atom_frac 0.2415495944164233 0.5235135801071985 0.2161162366746865 W
  atom_frac 0.7415455902530762 0.9764872059918854 0.7161164248815464 W
  atom_frac 0.7584514430433975 0.4764876223835535 0.7838842254973166 W
  atom_frac 0.2584536914416720 0.0235123310458978 0.2838874954582347 W
  atom_frac 0.2592420370624267 0.5278951692821959 0.7192027939403275 W
  atom_frac 0.7592439941182035 0.9721048780920712 0.2191996921216355 W
  atom_frac 0.7407594083210191 0.4721035374023793 0.2807966764988736 W
  atom_frac 0.2407554918827295 0.0278954319654607 0.7807967720294348 W
  atom_frac 0.4994058974213288 0.5342497730233281 0.2868857265104019 O
  atom_frac 0.9994071570614709 0.9657499956463589 0.7868868559413670 O
  atom_frac 0.5005946422929249 0.4657503837315195 0.7131131003281627 O
  atom_frac 0.0005931218345141 0.0342501393306095 0.2131133192815337 O
  atom_frac 0.5013291337158199 0.9670476174056645 0.2847841995649789 O
  atom_frac 0.0013307422430356 0.5329516631420784 0.7847847085932528 O
  atom_frac 0.4986696827522697 0.0329520539200677 0.7152163017609682 O
  atom_frac 0.9986684064532265 0.4670480598527733 0.2152164040344256 O
  atom_frac 0.2183451891073102 0.7565190354877634 0.2164895862215221 O
  atom_frac 0.7183451875437781 0.7434813411348716 0.7164867371044500 O
  atom_frac 0.7816542874080302 0.2434797594945991 0.7835097676569567 O
  atom_frac 0.2816549433053539 0.2565203379397522 0.2835126379756592 O
  atom_frac 0.2894125298653919 0.7555972320553651 0.7663182257518735 O
  atom_frac 0.7894132063764832 0.7444025609809338 0.2663171560546228 O
  atom_frac 0.7105876145261457 0.2444021595499276 0.2336812880548012 O
  atom_frac 0.2105870600442037 0.2555980394749209 0.7336833341117397 O
  atom_frac 0.2131925659627641 0.5349216369383125 0.4969696132597154 O
  atom_frac 0.7131934281177145 0.9650812732277919 0.9969688090565043 O
  atom_frac 0.7868068757515164 0.4650786027705918 0.5030318053585666 O
  atom_frac 0.2868069502315243 0.0349182617258554 0.0030329054697084 O
  atom_frac 0.2132227225024164 0.9829159897462288 0.5021287737407720 O
  atom_frac 0.7132218288230310 0.5170804887820671 0.0021275459431407 O
  atom_frac 0.7867776737468029 0.0170840510695311 0.4978698485778208 O
  atom_frac 0.2867779023739845 0.4829197872984544 0.9978710325450106 O
  
  -----------------------------------------------------------------------
  Completed first pass over input file geometry.in .
  -----------------------------------------------------------------------
  

  Basic array size parameters:
  | Number of species                 :        2
  | Number of atoms                   :       32
  | Number of lattice vectors         :        3
  | Max. basis fn. angular momentum   :        3
  | Max. atomic/ionic basis occupied n:        6
  | Max. number of basis fn. types    :        3
  | Max. radial fns per species/type  :       14
  | Max. logarithmic grid size        :     1483
  | Max. radial integration grid size :       71
  | Max. angular integration grid size:      302
  | Max. angular grid division number :        8
  | Radial grid for Hartree potential :     1483
  | Number of spin channels           :        1
  | Max. number of (n,l) shells per species with '+U' treatment:        1

------------------------------------------------------------
          Reading file control.in.
------------------------------------------------------------
  Spin treatment: No spin polarisation.
  Scalar relativistic treatment of kinetic energy: on-site free-atom approximation to ZORA.
  Forces will be computed.
  XC: Using LibXC. Please refer to LibXC output for further details.
  Using libxc - Initializing
  Libxc version: 4.3.4


  ** PLEASE ** be careful using LibXC. Whilst most of the LDA, GGA and MGGA functionals,
  and hybrid variations therein, should be stable (though we always recommend testing!),
  there are several fancy functionals with e.g. range-separation, like HSE03/HSE06/LC-PBEh,
  and also MGGA functionals that depend on the laplacian of the density, like BR89,
  that are not fully implemented due to the infrastrucutre for these functionals being incomplete or non-generic.
  If you want to use these functionals please contact the development team and we will work on them with you!

  You have selected libxc functional MGGA_X_MBEEF (249)
    - Description: mBEEF exchange
    - Type: MGGA(Exchange)
    - Reference to Literature:
      [1] J. Wellendorff, K. T. Lundgaard, K. W. Jacobsen, and T. Bligaard, J. Chem. Phys. 140, 144107 (2014)

  You have selected libxc functional GGA_C_PBE_SOL (133)
    - Description: Perdew, Burke & Ernzerhof SOL
    - Type: GGA(Correlation)
    - Reference to Literature:
      [1] J. P. Perdew, A. Ruzsinszky, G. I. Csonka, O. A. Vydrov, G. E. Scuseria, L. A. Constantin, X. Zhou, and K. Burke, Phys.

  Switching on meta-ggas
  Found k-point grid:         4         5         5
  Occupation type: Gaussian broadening, width =   0.100000E+00 eV.
  Fixing petukhov mixing factor to   1.000000000000
  Convergence accuracy of total energy:  0.1000E-05
  Convergence accuracy of sum of eigenvalues:  0.1000E-02
  Convergence accuracy of self-consistent charge density:  0.1000E-05
  Convergence accuracy of forces:  0.1000E-03
 
  Reading configuration options for species W                   .
  | Found nuclear charge :  74.0000
  | Found atomic mass :    183.840000000000      amu
  | Found l_max for Hartree potential  :   4
  | Found cutoff potl. onset [A], width [A], scale factor :    3.50000    1.50000    1.00000
  | Threshold for basis-dependent cutoff potential is   0.100000E-03
  | Found data for basic radial integration grid :    71 points, outermost radius =    5.000 A
  | Found multiplier for basic radial grid :   1
  | Found angular grid specification: user-specified.
  | Specified grid contains     5 separate shells.
  | Check grid settings after all constraints further below.
  | Found free-atom valence shell :  6 s   2.000
  | Found free-atom valence shell :  5 p   6.000
  | Found free-atom valence shell :  5 d   4.000
  | Found free-atom valence shell :  4 f  14.000
  | Found free-ion valence shell :  6 s   1.000
  | Found free-ion valence shell :  5 p   6.000
  | Found free-ion valence shell :  5 d   3.000
  | Found free-ion valence shell :  4 f  14.000
  | Found hydrogenic basis function :  4 f   7.800
  | Found hydrogenic basis function :  4 d   5.800
  | Found ionic basis function :  6 p , default cutoff radius.
  | Found ionic basis function :  6 s , default cutoff radius.
  | Found request for '+U' treatment for  5 d shell, U =     0.000000 eV.
  Species W                   : Missing cutoff potential type.
  Defaulting to exp(1/x)/(1-x)^2 type cutoff potential.
  Species W : No 'logarithmic' tag. Using default grid for free atom:
  | Default logarithmic grid data [bohr] : 0.1000E-03 0.1000E+03 0.1012E+01
  | Will include ionic basis functions of  2.0-fold positive W                    ion.
  Species W : On-site basis accuracy parameter (for Gram-Schmidt orthonormalisation) not specified.
  Using default value basis_acc =  0.1000000E-03.
  Species W                   : Using default innermost maximum threshold i_radial=  2 for radial functions.
  Species W                   : Default cutoff onset for free atom density etc. : 0.35000000E+01 AA.
  Species W                   : Basic radial grid will be enhanced according to radial_multiplier =   1, to contain    71 grid points.
 
  Reading configuration options for species O                   .
  | Found nuclear charge :   8.0000
  | Found atomic mass :    15.9994000000000      amu
  | Found l_max for Hartree potential  :   4
  | Found cutoff potl. onset [A], width [A], scale factor :    3.50000    1.50000    1.00000
  | Threshold for basis-dependent cutoff potential is   0.100000E-03
  | Found data for basic radial integration grid :    36 points, outermost radius =    5.000 A
  | Found multiplier for basic radial grid :   1
  | Found angular grid specification: user-specified.
  | Specified grid contains     5 separate shells.
  | Check grid settings after all constraints further below.
  | Found free-atom valence shell :  2 s   2.000
  | Found free-atom valence shell :  2 p   4.000
  | Found free-ion valence shell :  2 s   1.000
  | Found free-ion valence shell :  2 p   3.000
  | Found hydrogenic basis function :  2 p   1.800
  | Found hydrogenic basis function :  3 d   7.600
  | Found hydrogenic basis function :  3 s   6.400
  | Found request for '+U' treatment for  2 p shell, U =     0.000000 eV.
  Species O                   : Missing cutoff potential type.
  Defaulting to exp(1/x)/(1-x)^2 type cutoff potential.
  Species O : No 'logarithmic' tag. Using default grid for free atom:
  | Default logarithmic grid data [bohr] : 0.1000E-03 0.1000E+03 0.1012E+01
  Species O : On-site basis accuracy parameter (for Gram-Schmidt orthonormalisation) not specified.
  Using default value basis_acc =  0.1000000E-03.
  Species O                   : Using default innermost maximum threshold i_radial=  2 for radial functions.
  Species O                   : Default cutoff onset for free atom density etc. : 0.35000000E+01 AA.
  Species O                   : Basic radial grid will be enhanced according to radial_multiplier =   1, to contain    36 grid points.
 
  Finished reading input file 'control.in'.
 
------------------------------------------------------------


------------------------------------------------------------
          Reading geometry description geometry.in.
------------------------------------------------------------
  | The smallest distance between any two atoms is         1.74345734 AA.
  | The first atom of this pair is atom number                      6 .
  | The second atom of this pair is atom number                    26 .
  | Wigner-Seitz cell of the first atom image           0     0     0 .
  | (The Wigner-Seitz cell of the second atom is 0 0 0  by definition.)

  Symmetry information by spglib:
  | Precision set to  0.1E-04
  | Number of Operations  : 1
  | Space group           : 1
  | International         : P1
  | Schoenflies           : C1^1
  Input structure read successfully.
  The structure contains       32 atoms,  and a total of        784.000 electrons.

  Input geometry:
  | Unit cell:
  |        7.32582000        0.00000000        0.00000000
  |        0.00000000        7.54767000        0.00000000
  |       -0.09131530        0.00000000        7.71073931
  | Atomic structure:
  |       Atom                x [A]            y [A]            z [A]
  |    1: Species W             1.74981413        3.95130774        1.66641596
  |    2: Species W             5.36703713        7.37020319        5.52178707
  |    3: Species W             5.48469813        3.59637133        6.04432691
  |    4: Species W             1.86746195        0.17746332        2.18898247
  |    5: Species W             1.83348628        3.98437853        5.54558526
  |    6: Species W             5.54206855        7.33712683        1.69019168
  |    7: Species W             5.40102906        3.56328171        2.16514997
  |    8: Species W             1.69243271        0.21054551        6.02052037
  |    9: Species O             3.63236066        4.03234098        2.21210105
  |   10: Species O             7.24962213        7.28916227        6.06747942
  |   11: Species O             3.60214811        3.51533020        5.49862922
  |   12: Species O            -0.01511540        0.25850875        1.64326125
  |   13: Species O             3.64664184        7.29895629        2.19589672
  |   14: Species O            -0.06191407        4.02254328        6.05127030
  |   15: Species O             3.58785415        0.24871123        5.51484646
  |   16: Species O             7.29641244        3.52512463        1.65947759
  |   17: Species O             1.57978874        5.70995603        1.66929476
  |   18: Species O             5.19704134        5.61155181        5.52464245
  |   19: Species O             5.65471218        1.83770488        6.04143957
  |   20: Species O             2.03746438        1.93613086        2.18609204
  |   21: Species O             2.05020752        5.70299856        5.90888007
  |   22: Species O             5.75878023        5.61850488        2.05350216
  |   23: Species O             5.18429828        1.84466685        1.80185549
  |   24: Species O             1.47572638        1.92916965        5.65724093
  |   25: Species O             1.51642944        4.03741199        3.83200313
  |   26: Species O             5.13368818        7.28411497        7.68736659
  |   27: Species O             5.71807105        3.51025982        3.87874712
  |   28: Species O             2.10081914        0.26355152        0.02338594
  |   29: Species O             1.51617925        7.41872553        3.87178408
  |   30: Species O             5.22474046        3.90275289        0.01640495
  |   31: Species O             5.71832848        0.12894478        3.83894461
  |   32: Species O             2.00976240        3.64491919        7.69432340

  Lattice parameters for 3D lattice (in Angstroms) :     7.325820    7.547670    7.711280
  Angle(s) between unit vectors (in degrees)       :    90.000000   90.678500   90.000000


  Quantities derived from the lattice vectors:
  | Reciprocal lattice vector 1:  0.857677  0.000000  0.010157
  | Reciprocal lattice vector 2:  0.000000  0.832467 -0.000000
  | Reciprocal lattice vector 3:  0.000000  0.000000  0.814862
  | Unit cell volume                               :   0.426349E+03  A^3

  Fractional coordinates:
                         L1                L2                L3
       atom_frac         0.24154959        0.52351358        0.21611624  W
       atom_frac         0.74154559        0.97648721        0.71611642  W
       atom_frac         0.75845144        0.47648762        0.78388423  W
       atom_frac         0.25845369        0.02351233        0.28388750  W
       atom_frac         0.25924204        0.52789517        0.71920279  W
       atom_frac         0.75924399        0.97210488        0.21919969  W
       atom_frac         0.74075941        0.47210354        0.28079668  W
       atom_frac         0.24075549        0.02789543        0.78079677  W
       atom_frac         0.49940590        0.53424977        0.28688573  O
       atom_frac         0.99940716        0.96575000        0.78688686  O
       atom_frac         0.50059464        0.46575038        0.71311310  O
       atom_frac         0.00059312        0.03425014        0.21311332  O
       atom_frac         0.50132913        0.96704762        0.28478420  O
       atom_frac         0.00133074        0.53295166        0.78478471  O
       atom_frac         0.49866968        0.03295205        0.71521630  O
       atom_frac         0.99866841        0.46704806        0.21521640  O
       atom_frac         0.21834519        0.75651904        0.21648959  O
       atom_frac         0.71834519        0.74348134        0.71648674  O
       atom_frac         0.78165429        0.24347976        0.78350977  O
       atom_frac         0.28165494        0.25652034        0.28351264  O
       atom_frac         0.28941253        0.75559723        0.76631823  O
       atom_frac         0.78941321        0.74440256        0.26631716  O
       atom_frac         0.71058761        0.24440216        0.23368129  O
       atom_frac         0.21058706        0.25559804        0.73368333  O
       atom_frac         0.21319257        0.53492164        0.49696961  O
       atom_frac         0.71319343        0.96508127        0.99696881  O
       atom_frac         0.78680688        0.46507860        0.50303181  O
       atom_frac         0.28680695        0.03491826        0.00303291  O
       atom_frac         0.21322272        0.98291599        0.50212877  O
       atom_frac         0.71322183        0.51708049        0.00212755  O
       atom_frac         0.78677767        0.01708405        0.49786985  O
       atom_frac         0.28677790        0.48291979        0.99787103  O

 
  Finished reading input file 'control.in'.
 

------------------------------------------------------------
          Reading geometry description geometry.in.
------------------------------------------------------------
 
  Consistency checks for stacksize environment parameter are next.
 
  | Maximum stacksize for task 0: unlimited
  | Maximum stacksize for task 1: unlimited
  | Maximum stacksize for task 2: unlimited
  | Maximum stacksize for task 3: unlimited
  | Maximum stacksize for task 4: unlimited
  | Maximum stacksize for task 5: unlimited
  | Maximum stacksize for task 6: unlimited
  | Maximum stacksize for task 7: unlimited
  | Maximum stacksize for task 8: unlimited
  | Maximum stacksize for task 9: unlimited
  | Maximum stacksize for task 10: unlimited
  | Maximum stacksize for task 11: unlimited
  | Maximum stacksize for task 12: unlimited
  | Maximum stacksize for task 13: unlimited
  | Maximum stacksize for task 14: unlimited
  | Maximum stacksize for task 15: unlimited
  | Maximum stacksize for task 16: unlimited
  | Maximum stacksize for task 17: unlimited
  | Maximum stacksize for task 18: unlimited
  | Maximum stacksize for task 19: unlimited
  | Maximum stacksize for task 20: unlimited
  | Maximum stacksize for task 21: unlimited
  | Maximum stacksize for task 22: unlimited
  | Maximum stacksize for task 23: unlimited
  | Maximum stacksize for task 24: unlimited
  | Maximum stacksize for task 25: unlimited
  | Maximum stacksize for task 26: unlimited
  | Maximum stacksize for task 27: unlimited
  | Maximum stacksize for task 28: unlimited
  | Maximum stacksize for task 29: unlimited
  | Maximum stacksize for task 30: unlimited
  | Maximum stacksize for task 31: unlimited
  | Maximum stacksize for task 32: unlimited
  | Maximum stacksize for task 33: unlimited
  | Maximum stacksize for task 34: unlimited
  | Maximum stacksize for task 35: unlimited
  | Maximum stacksize for task 36: unlimited
  | Maximum stacksize for task 37: unlimited
  | Maximum stacksize for task 38: unlimited
  | Maximum stacksize for task 39: unlimited
  | Maximum stacksize for task 40: unlimited
  | Maximum stacksize for task 41: unlimited
  | Maximum stacksize for task 42: unlimited
  | Maximum stacksize for task 43: unlimited
  | Maximum stacksize for task 44: unlimited
  | Maximum stacksize for task 45: unlimited
  | Maximum stacksize for task 46: unlimited
  | Maximum stacksize for task 47: unlimited
  | Maximum stacksize for task 48: unlimited
  | Maximum stacksize for task 49: unlimited
  | Maximum stacksize for task 50: unlimited
  | Maximum stacksize for task 51: unlimited
  | Maximum stacksize for task 52: unlimited
  | Maximum stacksize for task 53: unlimited
  | Maximum stacksize for task 54: unlimited
  | Maximum stacksize for task 55: unlimited
  | Maximum stacksize for task 56: unlimited
  | Maximum stacksize for task 57: unlimited
  | Maximum stacksize for task 58: unlimited
  | Maximum stacksize for task 59: unlimited
  | Maximum stacksize for task 60: unlimited
  | Maximum stacksize for task 61: unlimited
  | Maximum stacksize for task 62: unlimited
  | Maximum stacksize for task 63: unlimited
  | Maximum stacksize for task 64: unlimited
  | Maximum stacksize for task 65: unlimited
  | Maximum stacksize for task 66: unlimited
  | Maximum stacksize for task 67: unlimited
  | Maximum stacksize for task 68: unlimited
  | Maximum stacksize for task 69: unlimited
  | Maximum stacksize for task 70: unlimited
  | Maximum stacksize for task 71: unlimited
  | Maximum stacksize for task 72: unlimited
  | Maximum stacksize for task 73: unlimited
  | Maximum stacksize for task 74: unlimited
  | Maximum stacksize for task 75: unlimited
  | Maximum stacksize for task 76: unlimited
  | Maximum stacksize for task 77: unlimited
  | Maximum stacksize for task 78: unlimited
  | Maximum stacksize for task 79: unlimited
  | Current stacksize for task 0: unlimited
  | Current stacksize for task 1: unlimited
  | Current stacksize for task 2: unlimited
  | Current stacksize for task 3: unlimited
  | Current stacksize for task 4: unlimited
  | Current stacksize for task 5: unlimited
  | Current stacksize for task 6: unlimited
  | Current stacksize for task 7: unlimited
  | Current stacksize for task 8: unlimited
  | Current stacksize for task 9: unlimited
  | Current stacksize for task 10: unlimited
  | Current stacksize for task 11: unlimited
  | Current stacksize for task 12: unlimited
  | Current stacksize for task 13: unlimited
  | Current stacksize for task 14: unlimited
  | Current stacksize for task 15: unlimited
  | Current stacksize for task 16: unlimited
  | Current stacksize for task 17: unlimited
  | Current stacksize for task 18: unlimited
  | Current stacksize for task 19: unlimited
  | Current stacksize for task 20: unlimited
  | Current stacksize for task 21: unlimited
  | Current stacksize for task 22: unlimited
  | Current stacksize for task 23: unlimited
  | Current stacksize for task 24: unlimited
  | Current stacksize for task 25: unlimited
  | Current stacksize for task 26: unlimited
  | Current stacksize for task 27: unlimited
  | Current stacksize for task 28: unlimited
  | Current stacksize for task 29: unlimited
  | Current stacksize for task 30: unlimited
  | Current stacksize for task 31: unlimited
  | Current stacksize for task 32: unlimited
  | Current stacksize for task 33: unlimited
  | Current stacksize for task 34: unlimited
  | Current stacksize for task 35: unlimited
  | Current stacksize for task 36: unlimited
  | Current stacksize for task 37: unlimited
  | Current stacksize for task 38: unlimited
  | Current stacksize for task 39: unlimited
  | Current stacksize for task 40: unlimited
  | Current stacksize for task 41: unlimited
  | Current stacksize for task 42: unlimited
  | Current stacksize for task 43: unlimited
  | Current stacksize for task 44: unlimited
  | Current stacksize for task 45: unlimited
  | Current stacksize for task 46: unlimited
  | Current stacksize for task 47: unlimited
  | Current stacksize for task 48: unlimited
  | Current stacksize for task 49: unlimited
  | Current stacksize for task 50: unlimited
  | Current stacksize for task 51: unlimited
  | Current stacksize for task 52: unlimited
  | Current stacksize for task 53: unlimited
  | Current stacksize for task 54: unlimited
  | Current stacksize for task 55: unlimited
  | Current stacksize for task 56: unlimited
  | Current stacksize for task 57: unlimited
  | Current stacksize for task 58: unlimited
  | Current stacksize for task 59: unlimited
  | Current stacksize for task 60: unlimited
  | Current stacksize for task 61: unlimited
  | Current stacksize for task 62: unlimited
  | Current stacksize for task 63: unlimited
  | Current stacksize for task 64: unlimited
  | Current stacksize for task 65: unlimited
  | Current stacksize for task 66: unlimited
  | Current stacksize for task 67: unlimited
  | Current stacksize for task 68: unlimited
  | Current stacksize for task 69: unlimited
  | Current stacksize for task 70: unlimited
  | Current stacksize for task 71: unlimited
  | Current stacksize for task 72: unlimited
  | Current stacksize for task 73: unlimited
  | Current stacksize for task 74: unlimited
  | Current stacksize for task 75: unlimited
  | Current stacksize for task 76: unlimited
  | Current stacksize for task 77: unlimited
  | Current stacksize for task 78: unlimited
  | Current stacksize for task 79: unlimited
 
  Consistency checks for the contents of control.in are next.
 
  MPI_IN_PLACE appears to work with this MPI implementation.
  | Keeping use_mpi_in_place .true. (see manual).
  Target number of points in a grid batch is not set. Defaulting to  100
  Method for grid partitioning is not set. Defaulting to parallel hash+maxmin partitioning.
  Batch size limit is not set. Defaulting to    200
  By default, will store active basis functions for each batch.
  If in need of memory, prune_basis_once .false. can be used to disable this option.
  communication_type for Hartree potential was not specified.
  Defaulting to calc_hartree .
  Defaulting to Pulay charge density mixer.
  Pulay mixer: Number of relevant iterations not set.
  Defaulting to    8 iterations.
  Pulay mixer: Number of initial linear mixing iterations not set.
  Defaulting to    0 iterations.
  Work space size for distributed Hartree potential not set.
  Defaulting to   0.200000E+03 MB.
  Mixing parameter for charge density mixing has not been set.
  Using default: charge_mix_param =     0.0500.
  The mixing parameter will be adjusted in iteration number     2 of the first full s.c.f. cycle only.
  Algorithm-dependent basis array size parameters:
  | n_max_pulay                         :        8
  Maximum number of self-consistency iterations not provided.
  Presetting  1000 iterations.
  Presetting      1001 iterations before the initial mixing cycle
  is restarted anyway using the sc_init_iter criterion / keyword.
  Presetting a factor      1.000 between actual scf density residual
  and density convergence criterion sc_accuracy_rho below which sc_init_iter
  takes no effect.
  Geometry relaxation not requested: no relaxation will be performed.
  Handling of forces: Unphysical translation and rotation will be removed from forces.
  No accuracy limit for integral partition fn. given. Defaulting to  0.1000E-14.
  No threshold value for u(r) in integrations given. Defaulting to  0.1000E-05.
  No accuracy for occupation numbers given. Defaulting to  0.1000E-12.
  No threshold value for occupation numbers given. Defaulting to  0.0000E+00.
  No accuracy for fermi level given. Defaulting to  0.1000E-19.
  Maximum # of iterations to find E_F not set. Defaulting to  200.
  Preferred method for the eigenvalue solver ('KS_method') not specified in 'control.in'.
  Defaulting to serial version, LAPACK (via ELSI), since more k-points than CPUs available.
  Will not use alltoall communication since running on < 1024 CPUs.
  Threshold for basis singularities not set.
  Default threshold for basis singularities:  0.1000E-04
  partition_type (choice of integration weights) for integrals was not specified.
  | Using a version of the partition function of Stratmann and coworkers ('stratmann_sparse').
  | At each grid point, the set of atoms used to build the partition table is smoothly restricted to
  | only those atoms whose free-atom density would be non-zero at that grid point.
  Partitioning for Hartree potential was not defined. Using partition_type for integrals.
  | Adjusted default value of keyword multip_moments_threshold to:       0.10000000E-11
  | This value may affect high angular momentum components of the Hartree potential in periodic systems.
  Angular momentum expansion for Kerker preconditioner not set explicitly.
  | Using default value of   0
  No explicit requirement for turning off preconditioner.
  | By default, it will be turned off when the charge convergence reaches
  | sc_accuracy_rho  =   0.100000E-05
  | sc_accuracy_eev  =   0.100000E-02
  | sc_accuracy_etot =   0.100000E-05
  No special mixing parameter while Kerker preconditioner is on.
  Using default: charge_mix_param =     0.0500.
  No q(lm)/r^(l+1) cutoff set for long-range Hartree potential.
  | Using default value of  0.100000E-09 .
  | Verify using the multipole_threshold keyword.
  Defaulting to new monopole extrapolation.
  Density update method: automatic selection selected.
  Using density matrix based charge density update.
 * Warning: DFT+U requires using density matrix based charge density update.
  Using density matrix based charge density update.
  Using packed matrix style: index .
  Defaulting to use time-reversal symmetry for k-point grid.
  Charge integration errors on the 3D integration grid will be compensated
  by explicit normalization and distribution of residual charges.
  Use the "compensate_multipole_errors" flag to change this behaviour.
  Set 'collect_eigenvectors' to be '.true.' for all serial calculations. This is mandatory.
  Set 'collect_eigenvectors' to be '.true.' for KS_method lapack_fast and serial.
 
  Consistency checks for the contents of geometry.in are next.
 

  Range separation radius for Ewald summation (hartree_convergence_parameter):      3.33587012 bohr.
  Number of empty states per atom not set in control.in - providing a guess from actual geometry.
  | Total number of empty states used during s.c.f. cycle:      144
  If you use a very high smearing, use empty_states (per atom!) in control.in to increase this value.

  Structure-dependent array size parameters: 
  | Maximum number of distinct radial functions  :       24
  | Maximum number of basis functions            :      784
  | Number of Kohn-Sham states (occupied + empty):      536
------------------------------------------------------------

------------------------------------------------------------
          Preparing all fixed parts of the calculation.
------------------------------------------------------------
  Determining machine precision:
    2.225073858507201E-308
  Setting up grids for atomic and cluster calculations.

  Creating wave function, potential, and density for free atoms.

  Species: W

  List of occupied orbitals and eigenvalues:
    n    l              occ      energy [Ha]    energy [eV]
    1    0           2.0000     -2762.321563    -75166.5942
    2    0           2.0000      -447.475579    -12176.4300
    3    0           2.0000      -101.819611     -2770.6526
    4    0           2.0000       -20.892496      -568.5137
    5    0           2.0000        -2.900160       -78.9174
    6    0           2.0000        -0.207646        -5.6503
    2    1           6.0000      -390.904632    -10637.0562
    3    1           6.0000       -85.380865     -2323.3316
    4    1           6.0000       -15.528411      -422.5496
    5    1           6.0000        -1.581486       -43.0344
    3    2          10.0000       -66.512759     -1809.9043
    4    2          10.0000        -8.744188      -237.9415
    5    2           4.0000        -0.162497        -4.4218
    4    3          14.0000        -1.223594       -33.2957


  Species: O

  List of occupied orbitals and eigenvalues:
    n    l              occ      energy [Ha]    energy [eV]
    1    0           2.0000       -18.786109      -511.1960
    2    0           2.0000        -0.872635       -23.7456
    2    1           4.0000        -0.337687        -9.1889


  Adding cutoff potential to free-atom effective potential.
  Creating fixed part of basis set: Ionic, confined, hydrogenic.
 
  W                    ion:

  List of free ionic orbitals and eigenvalues:
    n    l      energy [Ha]    energy [eV]
    1    0     -2763.098719    -75187.7417
    2    0      -448.208294    -12196.3682
    3    0      -102.543538     -2790.3516
    4    0       -21.614730      -588.1667
    5    0        -3.616824       -98.4188
    6    0        -0.765393       -20.8274
    2    1      -391.636291    -10656.9657
    3    1       -86.104489     -2343.0224
    4    1       -16.250625      -442.2020
    5    1        -2.290370       -62.3241
    3    2       -67.236345     -1829.5940
    4    2        -9.466347      -257.5924
    5    2        -0.817995       -22.2588
    4    3        -1.944712       -52.9183


  List of ionic basis orbitals and eigenvalues:
    n    l      energy [Ha]    energy [eV]    outer radius [A]
    6    1        -0.515087       -14.0162       4.579510
    6    0        -0.765211       -20.8224       4.523866

 
  W                    hydrogenic:
 
  List of hydrogenic basis orbitals: 
    n    l      effective z      eigenvalue [eV]  inner max. [A]     outer max. [A]     outer radius [A]   
    4    3         7.800000       -51.7351           1.082252           1.082252           4.360959
    4    2         5.800000       -28.5269           0.616741           1.922484           4.579510
 
 
  O                    hydrogenic:
 
  List of hydrogenic basis orbitals: 
    n    l      effective z      eigenvalue [eV]  inner max. [A]     outer max. [A]     outer radius [A]   
    2    1         1.800000       -10.9749           1.164242           1.164242           4.578029
    3    2         7.600000       -87.3180           0.624125           0.624125           3.251020
    3    0         6.400000       -61.9207           0.061167           1.081902           4.001998
 
  Creating atomic-like basis functions for current effective potential.

  Species W                   :

  List of atomic basis orbitals and eigenvalues:
    n    l      energy [Ha]    energy [eV]    outer radius [A]
    1    0     -2762.321563    -75166.5942       0.130566
    2    0      -447.475579    -12176.4300       0.342973
    3    0      -101.819611     -2770.6526       0.722975
    4    0       -20.892496      -568.5137       1.542753
    5    0        -2.900160       -78.9174       3.812241
    6    0        -0.207646        -5.6503       4.579510
    2    1      -390.904632    -10637.0562       0.355785
    3    1       -85.380865     -2323.3316       0.768545
    4    1       -15.528411      -422.5496       1.743367
    5    1        -1.581486       -43.0344       4.255627
    3    2       -66.512759     -1809.9043       0.827037
    4    2        -8.744188      -237.9415       2.172477
    5    2        -0.162497        -4.4218       4.579510
    4    3        -1.223594       -33.2957       4.152839


  Species O                   :

  List of atomic basis orbitals and eigenvalues:
    n    l      energy [Ha]    energy [eV]    outer radius [A]
    1    0       -18.786109      -511.1960       1.433179
    2    0        -0.872635       -23.7456       4.413171
    2    1        -0.337687        -9.1889       4.522403

  Assembling full basis from fixed parts.
 * Warning - Since '+U' treatment was requested,
 * the basis-dependent cutoff is turned off automatically.
  | Species W :   atomic orbital   1 s accepted.
  | Species W :   atomic orbital   2 s accepted.
  | Species W :   atomic orbital   3 s accepted.
  | Species W :   atomic orbital   4 s accepted.
  | Species W :   atomic orbital   5 s accepted.
  | Species W :   atomic orbital   6 s accepted.
  | Species W :    ionic orbital   6 s accepted.
  | Species W :   atomic orbital   2 p accepted.
  | Species W :   atomic orbital   3 p accepted.
  | Species W :   atomic orbital   4 p accepted.
  | Species W :   atomic orbital   5 p accepted.
  | Species W :    ionic orbital   6 p accepted.
  | Species W :   atomic orbital   3 d accepted.
  | Species W :   atomic orbital   4 d accepted.
  | Species W :   atomic orbital   5 d accepted.
  | Species W :    hydro orbital   4 d accepted.
  | Species W :   atomic orbital   4 f accepted.
  | Species W :    hydro orbital   4 f accepted.
 * Warning - Since '+U' treatment was requested,
 * the basis-dependent cutoff is turned off automatically.
  | Species O :   atomic orbital   1 s accepted.
  | Species O :   atomic orbital   2 s accepted.
  | Species O :    hydro orbital   3 s accepted.
  | Species O :   atomic orbital   2 p accepted.
  | Species O :    hydro orbital   2 p accepted.
  | Species O :    hydro orbital   3 d accepted.
 
  Basis size parameters after reduction:
  | Total number of radial functions:       24
  | Total number of basis functions :      784
 
  Per-task memory consumption for arrays in subroutine allocate_ext:
  |           9.132064MB.
  Testing on-site integration grid accuracy.
  |  Species  Function  <phi|h_atom|phi> (log., in eV)  <phi|h_atom|phi> (rad., in eV)
           1        1             -75166.5941829202             -75166.2963845349 ***
           1        2             -12176.4300443313             -12176.4244740130
           1        3              -2770.6525853660              -2770.6522914840
           1        4               -568.5137341422               -568.5137148499
           1        5                -78.9173646122                -78.9173632777
           1        6                 -5.6624167746                 -5.6670957154
           1        7                  6.3161795637                  6.2642968273 ***
           1        8             -10637.0562318832             -10637.0562266318
           1        9              -2323.3315548951              -2323.3315407880
           1       10               -422.5495664397               -422.5495630511
           1       11                -43.0344218457                -43.0344212763
           1       12                 -0.0870825552                 -0.0919272402
           1       13              -1809.9042649712              -1809.9042593982
           1       14               -237.9414552254               -237.9414538240
           1       15                 -4.4240303863                 -4.4249183561
           1       16                  8.5737076126                  8.5668165549
           1       17                -33.2956780330                -33.2956778856
           1       18                 21.2971038809                 21.2972907921
           2       19               -511.1960429777               -511.1959399133
           2       20                -23.7455964041                -23.7455972542
           2       21                 17.3746964700                 17.3748057881
           2       22                 -9.1890598667                 -9.1892026751
           2       23                  8.1915160719                  8.1720639763
           2       24                 45.8005976646                 45.8005620229
 * Note: Onsite integrals marked "***" above are less accurate than
 * onsite_accuracy_threshold =    0.03000 eV. Usually, this is harmless.
 * However, one integral did have a negative value. This integral could be important.
 * When in doubt, tighten the "radial" and/or "radial_multiplier" flags to check.

  Preparing densities etc. for the partition functions (integrals / Hartree potential).

  Preparations completed.
  max(cpu_time)          :      0.665 s.
  Wall clock time (cpu1) :      0.668 s.
------------------------------------------------------------

------------------------------------------------------------
          Begin self-consistency loop: Initialization.

          Date     :  20240503, Time     :  190357.958
------------------------------------------------------------

  Initializing index lists of integration centers etc. from given atomic structure:
  Mapping all atomic coordinates to central unit cell.

  Initializing the k-points
  Using symmetry for reducing the k-points
  | k-points reduced from:      100 to       51
  | Number of k-points                             :        51
  The eigenvectors in the calculations are COMPLEX.
  | K-points in task   0:         0
  | K-points in task   1:         1
  | K-points in task   2:         1
  | K-points in task   3:         1
  | K-points in task   4:         1
  | K-points in task   5:         1
  | K-points in task   6:         1
  | K-points in task   7:         1
  | K-points in task   8:         1
  | K-points in task   9:         1
  | K-points in task  10:         1
  | K-points in task  11:         1
  | K-points in task  12:         1
  | K-points in task  13:         1
  | K-points in task  14:         1
  | K-points in task  15:         1
  | K-points in task  16:         1
  | K-points in task  17:         1
  | K-points in task  18:         1
  | K-points in task  19:         1
  | K-points in task  20:         1
  | K-points in task  21:         1
  | K-points in task  22:         1
  | K-points in task  23:         1
  | K-points in task  24:         1
  | K-points in task  25:         1
  | K-points in task  26:         1
  | K-points in task  27:         1
  | K-points in task  28:         1
  | K-points in task  29:         1
  | K-points in task  30:         1
  | K-points in task  31:         1
  | K-points in task  32:         1
  | K-points in task  33:         1
  | K-points in task  34:         1
  | K-points in task  35:         1
  | K-points in task  36:         1
  | K-points in task  37:         1
  | K-points in task  38:         1
  | K-points in task  39:         1
  | K-points in task  40:         1
  | K-points in task  41:         1
  | K-points in task  42:         1
  | K-points in task  43:         1
  | K-points in task  44:         1
  | K-points in task  45:         1
  | K-points in task  46:         1
  | K-points in task  47:         1
  | K-points in task  48:         1
  | K-points in task  49:         1
  | K-points in task  50:         1
  | K-points in task  51:         1
  | K-points in task  52:         0
  | K-points in task  53:         0
  | K-points in task  54:         0
  | K-points in task  55:         0
  | K-points in task  56:         0
  | K-points in task  57:         0
  | K-points in task  58:         0
  | K-points in task  59:         0
  | K-points in task  60:         0
  | K-points in task  61:         0
  | K-points in task  62:         0
  | K-points in task  63:         0
  | K-points in task  64:         0
  | K-points in task  65:         0
  | K-points in task  66:         0
  | K-points in task  67:         0
  | K-points in task  68:         0
  | K-points in task  69:         0
  | K-points in task  70:         0
  | K-points in task  71:         0
  | K-points in task  72:         0
  | K-points in task  73:         0
  | K-points in task  74:         0
  | K-points in task  75:         0
  | K-points in task  76:         0
  | K-points in task  77:         0
  | K-points in task  78:         0
  | K-points in task  79:         0
  | Number of basis functions in the Hamiltonian integrals :      5610
  | Number of basis functions in a single unit cell        :       784
  | Number of centers in hartree potential         :      1678
  | Number of centers in hartree multipole         :      1044
  | Number of centers in electron density summation:       780
  | Number of centers in basis integrals           :       834
  | Number of centers in integrals                 :       316
  | Number of centers in hamiltonian               :       780
  | Consuming         46 KiB for k_phase.
  | Number of super-cells (origin) [n_cells]                     :         343
  | Number of super-cells (after PM_index) [n_cells]             :          58
  | Number of super-cells in hamiltonian [n_cells_in_hamiltonian]:          58
  | Size of matrix packed + index [n_hamiltonian_matrix_size] :     1386719
  | Estimated reciprocal-space cutoff momentum G_max:         2.81901543 bohr^-1 .
  | Reciprocal lattice points for long-range Hartree potential:    1082
  Partitioning the integration grid into batches with parallel hashing+maxmin method.
  | Number of batches:     3112
  | Maximal batch size:     116
  | Minimal batch size:      51
  | Average batch size:      73.506
  | Standard deviation of batch sizes:      16.079

  Integration load balanced across    80 MPI tasks.
  Work distribution over tasks is as follows:
  Task     0 has       2830 integration points.
  Task     1 has       2867 integration points.
  Task     2 has       2886 integration points.
  Task     3 has       2837 integration points.
  Task     4 has       2884 integration points.
  Task     5 has       2851 integration points.
  Task     6 has       2889 integration points.
  Task     7 has       2872 integration points.
  Task     8 has       2869 integration points.
  Task     9 has       2833 integration points.
  Task    10 has       2847 integration points.
  Task    11 has       2841 integration points.
  Task    12 has       2836 integration points.
  Task    13 has       2865 integration points.
  Task    14 has       2856 integration points.
  Task    15 has       2863 integration points.
  Task    16 has       2870 integration points.
  Task    17 has       2886 integration points.
  Task    18 has       2880 integration points.
  Task    19 has       2891 integration points.
  Task    20 has       2872 integration points.
  Task    21 has       2846 integration points.
  Task    22 has       2838 integration points.
  Task    23 has       2889 integration points.
  Task    24 has       2843 integration points.
  Task    25 has       2833 integration points.
  Task    26 has       2827 integration points.
  Task    27 has       2873 integration points.
  Task    28 has       2867 integration points.
  Task    29 has       2845 integration points.
  Task    30 has       2843 integration points.
  Task    31 has       2870 integration points.
  Task    32 has       2878 integration points.
  Task    33 has       2829 integration points.
  Task    34 has       2875 integration points.
  Task    35 has       2835 integration points.
  Task    36 has       2843 integration points.
  Task    37 has       2866 integration points.
  Task    38 has       2888 integration points.
  Task    39 has       2831 integration points.
  Task    40 has       2827 integration points.
  Task    41 has       2886 integration points.
  Task    42 has       2852 integration points.
  Task    43 has       2885 integration points.
  Task    44 has       2871 integration points.
  Task    45 has       2860 integration points.
  Task    46 has       2872 integration points.
  Task    47 has       2864 integration points.
  Task    48 has       2866 integration points.
  Task    49 has       2834 integration points.
  Task    50 has       2826 integration points.
  Task    51 has       2868 integration points.
  Task    52 has       2875 integration points.
  Task    53 has       2868 integration points.
  Task    54 has       2875 integration points.
  Task    55 has       2866 integration points.
  Task    56 has       2848 integration points.
  Task    57 has       2873 integration points.
  Task    58 has       2876 integration points.
  Task    59 has       2884 integration points.
  Task    60 has       2860 integration points.
  Task    61 has       2842 integration points.
  Task    62 has       2882 integration points.
  Task    63 has       2829 integration points.
  Task    64 has       2831 integration points.
  Task    65 has       2839 integration points.
  Task    66 has       2872 integration points.
  Task    67 has       2869 integration points.
  Task    68 has       2863 integration points.
  Task    69 has       2871 integration points.
  Task    70 has       2881 integration points.
  Task    71 has       2827 integration points.
  Task    72 has       2849 integration points.
  Task    73 has       2829 integration points.
  Task    74 has       2859 integration points.
  Task    75 has       2881 integration points.
  Task    76 has       2887 integration points.
  Task    77 has       2833 integration points.
  Task    78 has       2845 integration points.
  Task    79 has       2883 integration points.
  Initializing partition tables, free-atom densities, potentials, etc. across the integration grid (initialize_grid_storage).
  | initialize_grid_storage: Actual outermost partition radius vs. multipole_radius_free
  | (-- VB: in principle, multipole_radius_free should be larger, hence this output)
  | Species        1: Confinement radius =              4.999999999999999 AA, multipole_radius_free =              5.050018377724275 AA.
  | Species        1: outer_partition_radius set to              5.050018377724275 AA .
  | Species        2: Confinement radius =              4.999999999999999 AA, multipole_radius_free =              5.048384829883283 AA.
  | Species        2: outer_partition_radius set to              5.048384829883283 AA .
  | The sparse table of interatomic distances needs       1950.80 kbyte instead of      5564.45 kbyte of memory.
  | Net number of integration points:   228752
  | of which are non-zero points    :   192244
  | Numerical average free-atom electrostatic potential    :    -16.32532935 eV
  Renormalizing the initial density to the exact electron count on the 3D integration grid.
  | Initial density: Formal number of electrons (from input files) :     784.0000000000
  | Integrated number of electrons on 3D grid     :     783.9977506368
  | Charge integration error                      :      -0.0022493632
  | Normalization factor for density and gradient :       1.0000028691
  Renormalizing the free-atom superposition density to the exact electron count on the 3D integration grid.
  | Formal number of electrons (from input files) :     784.0000000000
  | Integrated number of electrons on 3D grid     :     783.9977506368
  | Charge integration error                      :      -0.0022493632
  | Normalization factor for density and gradient :       1.0000028691
  Obtaining max. number of non-zero basis functions in each batch (get_n_compute_maxes).
  | Maximal number of non-zero basis functions:      696 in task     0
  | Maximal number of non-zero basis functions:      691 in task     1
  | Maximal number of non-zero basis functions:      700 in task     2
  | Maximal number of non-zero basis functions:      678 in task     3
  | Maximal number of non-zero basis functions:      700 in task     4
  | Maximal number of non-zero basis functions:      702 in task     5
  | Maximal number of non-zero basis functions:      711 in task     6
  | Maximal number of non-zero basis functions:      692 in task     7
  | Maximal number of non-zero basis functions:      712 in task     8
  | Maximal number of non-zero basis functions:      693 in task     9
  | Maximal number of non-zero basis functions:      686 in task    10
  | Maximal number of non-zero basis functions:      690 in task    11
  | Maximal number of non-zero basis functions:      656 in task    12
  | Maximal number of non-zero basis functions:      688 in task    13
  | Maximal number of non-zero basis functions:      697 in task    14
  | Maximal number of non-zero basis functions:      692 in task    15
  | Maximal number of non-zero basis functions:      701 in task    16
  | Maximal number of non-zero basis functions:      691 in task    17
  | Maximal number of non-zero basis functions:      702 in task    18
  | Maximal number of non-zero basis functions:      690 in task    19
  | Maximal number of non-zero basis functions:      685 in task    20
  | Maximal number of non-zero basis functions:      700 in task    21
  | Maximal number of non-zero basis functions:      692 in task    22
  | Maximal number of non-zero basis functions:      708 in task    23
  | Maximal number of non-zero basis functions:      683 in task    24
  | Maximal number of non-zero basis functions:      692 in task    25
  | Maximal number of non-zero basis functions:      701 in task    26
  | Maximal number of non-zero basis functions:      712 in task    27
  | Maximal number of non-zero basis functions:      682 in task    28
  | Maximal number of non-zero basis functions:      684 in task    29
  | Maximal number of non-zero basis functions:      687 in task    30
  | Maximal number of non-zero basis functions:      710 in task    31
  | Maximal number of non-zero basis functions:      668 in task    32
  | Maximal number of non-zero basis functions:      674 in task    33
  | Maximal number of non-zero basis functions:      679 in task    34
  | Maximal number of non-zero basis functions:      678 in task    35
  | Maximal number of non-zero basis functions:      689 in task    36
  | Maximal number of non-zero basis functions:      684 in task    37
  | Maximal number of non-zero basis functions:      694 in task    38
  | Maximal number of non-zero basis functions:      722 in task    39
  | Maximal number of non-zero basis functions:      711 in task    40
  | Maximal number of non-zero basis functions:      725 in task    41
  | Maximal number of non-zero basis functions:      692 in task    42
  | Maximal number of non-zero basis functions:      708 in task    43
  | Maximal number of non-zero basis functions:      696 in task    44
  | Maximal number of non-zero basis functions:      701 in task    45
  | Maximal number of non-zero basis functions:      713 in task    46
  | Maximal number of non-zero basis functions:      694 in task    47
  | Maximal number of non-zero basis functions:      699 in task    48
  | Maximal number of non-zero basis functions:      710 in task    49
  | Maximal number of non-zero basis functions:      689 in task    50
  | Maximal number of non-zero basis functions:      693 in task    51
  | Maximal number of non-zero basis functions:      689 in task    52
  | Maximal number of non-zero basis functions:      708 in task    53
  | Maximal number of non-zero basis functions:      689 in task    54
  | Maximal number of non-zero basis functions:      711 in task    55
  | Maximal number of non-zero basis functions:      735 in task    56
  | Maximal number of non-zero basis functions:      699 in task    57
  | Maximal number of non-zero basis functions:      687 in task    58
  | Maximal number of non-zero basis functions:      710 in task    59
  | Maximal number of non-zero basis functions:      705 in task    60
  | Maximal number of non-zero basis functions:      681 in task    61
  | Maximal number of non-zero basis functions:      699 in task    62
  | Maximal number of non-zero basis functions:      731 in task    63
  | Maximal number of non-zero basis functions:      674 in task    64
  | Maximal number of non-zero basis functions:      695 in task    65
  | Maximal number of non-zero basis functions:      686 in task    66
  | Maximal number of non-zero basis functions:      686 in task    67
  | Maximal number of non-zero basis functions:      688 in task    68
  | Maximal number of non-zero basis functions:      671 in task    69
  | Maximal number of non-zero basis functions:      680 in task    70
  | Maximal number of non-zero basis functions:      688 in task    71
  | Maximal number of non-zero basis functions:      698 in task    72
  | Maximal number of non-zero basis functions:      683 in task    73
  | Maximal number of non-zero basis functions:      690 in task    74
  | Maximal number of non-zero basis functions:      689 in task    75
  | Maximal number of non-zero basis functions:      730 in task    76
  | Maximal number of non-zero basis functions:      689 in task    77
  | Maximal number of non-zero basis functions:      713 in task    78
  | Maximal number of non-zero basis functions:      718 in task    79
  Allocating        0.000 MB for KS_eigenvector_complex
  Integrating Hamiltonian matrix: batch-based integration.
  Time summed over all CPUs for integration: real work       25.066 s, elapsed       26.234 s
  Integrating overlap matrix.
  Time summed over all CPUs for integration: real work       16.062 s, elapsed       17.300 s
  Decreasing sparse matrix size:
  | Tolerance:  0.1000E-12
  Hamiltonian matrix
  | Array has  1183942 nonzero elements out of  1386719 elements
  | Sparsity factor is 0.146
  Overlap matrix
  | Array has  1086401 nonzero elements out of  1386719 elements
  | Sparsity factor is 0.217
  New size of hamiltonian matrix:     1184018

  Updating Kohn-Sham eigenvalues and eigenvectors using ELSI and the (modified) LAPACK eigensolver.

  Obtaining occupation numbers and chemical potential using ELSI.
  | Chemical potential (Fermi level):    -5.80988338 eV
  Writing Kohn-Sham eigenvalues.
  K-point:       1 at    0.000000    0.000000    0.000000 (in units of recip. lattice)

  State    Occupation    Eigenvalue [Ha]    Eigenvalue [eV]
      1       2.00000       -2762.332518       -75166.89228
      2       2.00000       -2762.332518       -75166.89227
      3       2.00000       -2762.332518       -75166.89227
      4       2.00000       -2762.332518       -75166.89227
      5       2.00000       -2762.332498       -75166.89173
      6       2.00000       -2762.332498       -75166.89172
      7       2.00000       -2762.332498       -75166.89172
      8       2.00000       -2762.332498       -75166.89172
      9       2.00000        -447.486567       -12176.72903
     10       2.00000        -447.486567       -12176.72903
     11       2.00000        -447.486567       -12176.72902
     12       2.00000        -447.486567       -12176.72902
     13       2.00000        -447.486547       -12176.72848
     14       2.00000        -447.486546       -12176.72847
     15       2.00000        -447.486546       -12176.72847
     16       2.00000        -447.486546       -12176.72847
     17       2.00000        -390.915614       -10637.35508
     18       2.00000        -390.915614       -10637.35507
     19       2.00000        -390.915614       -10637.35507
     20       2.00000        -390.915614       -10637.35507
     21       2.00000        -390.915610       -10637.35498
     22       2.00000        -390.915610       -10637.35497
     23       2.00000        -390.915610       -10637.35497
     24       2.00000        -390.915610       -10637.35497
     25       2.00000        -390.915606       -10637.35487
     26       2.00000        -390.915606       -10637.35487
     27       2.00000        -390.915606       -10637.35486
     28       2.00000        -390.915606       -10637.35486
     29       2.00000        -390.915594       -10637.35453
     30       2.00000        -390.915593       -10637.35452
     31       2.00000        -390.915593       -10637.35452
     32       2.00000        -390.915593       -10637.35452
     33       2.00000        -390.915590       -10637.35443
     34       2.00000        -390.915590       -10637.35442
     35       2.00000        -390.915590       -10637.35442
     36       2.00000        -390.915590       -10637.35442
     37       2.00000        -390.915586       -10637.35432
     38       2.00000        -390.915586       -10637.35432
     39       2.00000        -390.915586       -10637.35431
     40       2.00000        -390.915586       -10637.35431
     41       2.00000        -101.830902        -2770.95982
     42       2.00000        -101.830901        -2770.95981
     43       2.00000        -101.830901        -2770.95981
     44       2.00000        -101.830901        -2770.95981
     45       2.00000        -101.830881        -2770.95925
     46       2.00000        -101.830880        -2770.95924
     47       2.00000        -101.830880        -2770.95924
     48       2.00000        -101.830880        -2770.95924
     49       2.00000         -85.392194        -2323.63981
     50       2.00000         -85.392193        -2323.63981
     51       2.00000         -85.392193        -2323.63980
     52       2.00000         -85.392193        -2323.63980
     53       2.00000         -85.392172        -2323.63924
     54       2.00000         -85.392172        -2323.63923
     55       2.00000         -85.392172        -2323.63923
     56       2.00000         -85.392172        -2323.63923
     57       2.00000         -85.392163        -2323.63898
     58       2.00000         -85.392163        -2323.63898
     59       2.00000         -85.392163        -2323.63897
     60       2.00000         -85.392163        -2323.63897
     61       2.00000         -85.392142        -2323.63841
     62       2.00000         -85.392142        -2323.63841
     63       2.00000         -85.392142        -2323.63841
     64       2.00000         -85.392142        -2323.63840
     65       2.00000         -85.392130        -2323.63809
     66       2.00000         -85.392130        -2323.63809
     67       2.00000         -85.392130        -2323.63808
     68       2.00000         -85.392130        -2323.63808
     69       2.00000         -85.392110        -2323.63753
     70       2.00000         -85.392110        -2323.63753
     71       2.00000         -85.392110        -2323.63753
     72       2.00000         -85.392110        -2323.63753
     73       2.00000         -66.524015        -1810.21054
     74       2.00000         -66.524015        -1810.21054
     75       2.00000         -66.524014        -1810.21053
     76       2.00000         -66.524014        -1810.21053
     77       2.00000         -66.524012        -1810.21047
     78       2.00000         -66.524012        -1810.21047
     79       2.00000         -66.524012        -1810.21046
     80       2.00000         -66.524012        -1810.21046
     81       2.00000         -66.523994        -1810.20997
     82       2.00000         -66.523994        -1810.20997
     83       2.00000         -66.523993        -1810.20996
     84       2.00000         -66.523993        -1810.20996
     85       2.00000         -66.523993        -1810.20995
     86       2.00000         -66.523993        -1810.20995
     87       2.00000         -66.523993        -1810.20994
     88       2.00000         -66.523993        -1810.20994
     89       2.00000         -66.523991        -1810.20990
     90       2.00000         -66.523991        -1810.20990
     91       2.00000         -66.523991        -1810.20989
     92       2.00000         -66.523991        -1810.20989
     93       2.00000         -66.523976        -1810.20948
     94       2.00000         -66.523976        -1810.20948
     95       2.00000         -66.523975        -1810.20947
     96       2.00000         -66.523975        -1810.20947
     97       2.00000         -66.523972        -1810.20939
     98       2.00000         -66.523972        -1810.20939
     99       2.00000         -66.523972        -1810.20939
    100       2.00000         -66.523972        -1810.20938
    101       2.00000         -66.523970        -1810.20933
    102       2.00000         -66.523970        -1810.20933
    103       2.00000         -66.523970        -1810.20933
    104       2.00000         -66.523970        -1810.20932
    105       2.00000         -66.523955        -1810.20892
    106       2.00000         -66.523955        -1810.20892
    107       2.00000         -66.523955        -1810.20891
    108       2.00000         -66.523955        -1810.20891
    109       2.00000         -66.523950        -1810.20878
    110       2.00000         -66.523950        -1810.20877
    111       2.00000         -66.523950        -1810.20877
    112       2.00000         -66.523949        -1810.20877
    113       2.00000         -20.905326         -568.86286
    114       2.00000         -20.905326         -568.86286
    115       2.00000         -20.905326         -568.86285
    116       2.00000         -20.905325         -568.86285
    117       2.00000         -20.905302         -568.86221
    118       2.00000         -20.905302         -568.86221
    119       2.00000         -20.905302         -568.86221
    120       2.00000         -20.905302         -568.86220
    121       2.00000         -18.871603         -513.52245
    122       2.00000         -18.871602         -513.52243
    123       2.00000         -18.871601         -513.52240
    124       2.00000         -18.871601         -513.52239
    125       2.00000         -18.871497         -513.51955
    126       2.00000         -18.871496         -513.51953
    127       2.00000         -18.871495         -513.51952
    128       2.00000         -18.871495         -513.51950
    129       2.00000         -18.870820         -513.50113
    130       2.00000         -18.870819         -513.50113
    131       2.00000         -18.870819         -513.50110
    132       2.00000         -18.870818         -513.50108
    133       2.00000         -18.870565         -513.49419
    134       2.00000         -18.870565         -513.49419
    135       2.00000         -18.870562         -513.49413
    136       2.00000         -18.870562         -513.49411
    137       2.00000         -18.870365         -513.48877
    138       2.00000         -18.870361         -513.48866
    139       2.00000         -18.870359         -513.48860
    140       2.00000         -18.870356         -513.48851
    141       2.00000         -18.869653         -513.46937
    142       2.00000         -18.869650         -513.46931
    143       2.00000         -18.869648         -513.46925
    144       2.00000         -18.869643         -513.46911
    145       2.00000         -15.541745         -422.91240
    146       2.00000         -15.541745         -422.91239
    147       2.00000         -15.541744         -422.91238
    148       2.00000         -15.541744         -422.91238
    149       2.00000         -15.541719         -422.91168
    150       2.00000         -15.541718         -422.91167
    151       2.00000         -15.541718         -422.91167
    152       2.00000         -15.541718         -422.91167
    153       2.00000         -15.541553         -422.90718
    154       2.00000         -15.541553         -422.90718
[...]
    447       0.00000           0.229136            6.23510
    448       0.00000           0.231912            6.31065
    449       0.00000           0.238005            6.47644
    450       0.00000           0.253398            6.89532
    451       0.00000           0.267429            7.27710
    452       0.00000           0.276838            7.53313
    453       0.00000           0.281609            7.66297
    454       0.00000           0.282308            7.68199
    455       0.00000           0.282602            7.68999
    456       0.00000           0.293683            7.99151
    457       0.00000           0.304193            8.27750
    458       0.00000           0.309400            8.41921
    459       0.00000           0.327844            8.92109
    460       0.00000           0.328275            8.93282
    461       0.00000           0.339877            9.24852
    462       0.00000           0.342145            9.31024
    463       0.00000           0.343834            9.35621
    464       0.00000           0.352452            9.59071
    465       0.00000           0.365428            9.94379
    466       0.00000           0.395502           10.76215
    467       0.00000           0.401393           10.92245
    468       0.00000           0.408693           11.12110
    469       0.00000           0.410458           11.16914
    470       0.00000           0.413127           11.24175
    471       0.00000           0.415244           11.29937
    472       0.00000           0.421935           11.48142
    473       0.00000           0.422438           11.49513
    474       0.00000           0.424576           11.55331
    475       0.00000           0.428943           11.67214
    476       0.00000           0.435238           11.84342
    477       0.00000           0.435656           11.85480
    478       0.00000           0.436254           11.87107
    479       0.00000           0.449660           12.23587
    480       0.00000           0.455695           12.40010
    481       0.00000           0.461158           12.54875
    482       0.00000           0.462467           12.58437
    483       0.00000           0.469054           12.76362
    484       0.00000           0.472527           12.85811
    485       0.00000           0.487957           13.27798
    486       0.00000           0.498582           13.56710
    487       0.00000           0.504359           13.72432
    488       0.00000           0.520383           14.16033
    489       0.00000           0.531293           14.45722
    490       0.00000           0.533599           14.51997
    491       0.00000           0.535618           14.57490
    492       0.00000           0.536491           14.59867
    493       0.00000           0.538026           14.64043
    494       0.00000           0.554877           15.09897
    495       0.00000           0.559025           15.21183
    496       0.00000           0.574144           15.62325
    497       0.00000           0.579279           15.76299
    498       0.00000           0.580598           15.79887
    499       0.00000           0.583057           15.86579
    500       0.00000           0.588780           16.02152
    501       0.00000           0.607587           16.53328
    502       0.00000           0.618093           16.81917
    503       0.00000           0.637505           17.34739
    504       0.00000           0.639694           17.40695
    505       0.00000           0.641496           17.45600
    506       0.00000           0.647106           17.60866
    507       0.00000           0.656043           17.85184
    508       0.00000           0.661729           18.00655
    509       0.00000           0.676293           18.40286
    510       0.00000           0.678537           18.46393
    511       0.00000           0.689766           18.76950
    512       0.00000           0.690312           18.78435
    513       0.00000           0.703248           19.13634
    514       0.00000           0.707598           19.25472
    515       0.00000           0.722332           19.65565
    516       0.00000           0.730906           19.88896
    517       0.00000           0.731726           19.91129
    518       0.00000           0.734127           19.97661
    519       0.00000           0.748886           20.37822
    520       0.00000           0.755724           20.56430
    521       0.00000           0.757387           20.60954
    522       0.00000           0.758827           20.64873
    523       0.00000           0.766551           20.85890
    524       0.00000           0.768403           20.90931
    525       0.00000           0.783664           21.32459
    526       0.00000           0.787122           21.41868
    527       0.00000           0.793270           21.58597
    528       0.00000           0.802103           21.82632
    529       0.00000           0.802994           21.85059
    530       0.00000           0.808188           21.99192
    531       0.00000           0.822469           22.38052
    532       0.00000           0.823261           22.40206
    533       0.00000           0.828348           22.54049
    534       0.00000           0.845867           23.01720
    535       0.00000           0.853081           23.21351
    536       0.00000           0.860815           23.42397

  What follows are estimated values for band gap, HOMO, LUMO, etc.
  | They are estimated on a discrete k-point grid and not necessarily exact.
  | For converged numbers, create a DOS and/or band structure plot on a denser k-grid.

  Highest occupied state (VBM) at     -8.91576144 eV (relative to internal zero)
  | Occupation number:      2.00000000
  | K-point:       1 at    0.000000    0.000000    0.000000 (in units of recip. lattice)

  Lowest unoccupied state (CBM) at    -6.77806971 eV (relative to internal zero)
  | Occupation number:      0.00000001
  | K-point:       1 at    0.000000    0.000000    0.000000 (in units of recip. lattice)

  ESTIMATED overall HOMO-LUMO gap:      2.13769173 eV between HOMO at k-point 1 and LUMO at k-point 1
  | This appears to be a direct band gap.
  The gap value is above 0.2 eV. Unless you are using a very sparse k-point grid,
  this system is most likely an insulator or a semiconductor.

  Self-consistency cycle converged.

  End self-consistency iteration #    33       :  max(cpu_time)    wall_clock(cpu1)
  | Time for this iteration                    :        1.975 s           2.037 s
  | Charge density & force component update    :        0.000 s           0.000 s
  | Density mixing                             :        0.012 s           0.002 s
  | Hartree multipole update                   :        0.003 s           0.003 s
  | Hartree multipole summation                :        0.822 s           0.824 s
  | Integration                                :        0.539 s           0.540 s
  | Solution of K.-S. eqns.                    :        0.564 s           0.565 s
  | Total energy evaluation                    :        0.006 s           0.031 s

  Partial memory accounting:
  | Current value for overall tracked memory usage:
  |   Minimum:       22.585 MB (on task  0)
  |   Maximum:       28.997 MB (on task  1)
  |   Average:       26.673 MB
  | Peak value for overall tracked memory usage:
  |   Minimum:       37.897 MB (on task 69 after allocating d_wave)
  |   Maximum:       66.531 MB (on task  1 after allocating eval_tmp)
  |   Average:       56.419 MB
  | Largest tracked array allocation so far:
  |   Minimum:       10.580 MB (overlap_matrix on task  0)
  |   Maximum:       10.580 MB (overlap_matrix on task  0)
  |   Average:       10.580 MB
  Note:  These values currently only include a subset of arrays which are explicitly tracked.
  The "true" memory usage will be greater.
------------------------------------------------------------
  Removing unitary transformations (pure translations, rotations) from forces on atoms.
  Atomic forces before filtering:
  | Net force on center of mass :  -0.235751E-05  0.340590E-04 -0.172107E-05 eV/A
  Atomic forces after filtering:
  | Net force on center of mass :   0.418139E-17  0.000000E+00 -0.139380E-17 eV/A

  Energy and forces in a compact form:
  | Total energy uncorrected      :         -0.367303550233511E+07 eV
  | Total energy corrected        :         -0.367303550233511E+07 eV  <-- do not rely on this value for anything but (periodic) metals
  | Electronic free energy        :         -0.367303550233511E+07 eV
  Total atomic forces (unitary forces cleaned) [eV/Ang]:
  |    1         -0.104461581113993E-02         -0.226691571655637E-02         -0.962302047481245E-03
  |    2         -0.628428753257820E-03          0.253228538886403E-02         -0.203224367717438E-02
  |    3          0.118108852804166E-02          0.142636589584179E-02          0.335640757184293E-03
  |    4          0.112020292104252E-02         -0.146913094707246E-02         -0.482804540185211E-03
  |    5          0.165467281981770E-04          0.216601513906518E-02          0.478414816231304E-03
  |    6          0.606907799279211E-04         -0.210646766550215E-02          0.168134108679038E-02
  |    7          0.768428354749143E-04         -0.182505338806270E-02          0.118422552414793E-03
  |    8          0.391718347521141E-03          0.190864365960219E-02          0.899797328656952E-03
  |    9          0.967144036558457E-03         -0.948350064896903E-03         -0.173390371141623E-02
  |   10          0.616511832219978E-03          0.884961468054489E-03         -0.173485640163256E-02
  |   11         -0.101663816287695E-02          0.958480002223061E-03          0.171757030226785E-02
  |   12         -0.723452516045876E-03         -0.947056800109562E-03          0.169414192632437E-02
  |   13          0.284908294309724E-03         -0.121923990168222E-02         -0.405556183414939E-03
  |   14         -0.329139098643207E-04          0.121667240962928E-02         -0.436950064486041E-03
  |   15         -0.202502077233977E-03          0.119644312382299E-02          0.396210836223356E-03
  |   16          0.167471436729184E-03         -0.116365761372663E-02          0.410907308854044E-03
  |   17         -0.427518412479499E-02         -0.136087080889507E-02          0.121716254465018E-03
  |   18         -0.419821482438405E-02          0.128852021849642E-02          0.230758433335689E-03
  |   19          0.422740956520532E-02          0.193325520852672E-02          0.409469564482534E-04
  |   20          0.411181567095470E-02         -0.194474187452130E-02         -0.172474100374099E-05
  |   21          0.230320221525784E-02         -0.880969187459398E-03         -0.356194778035817E-02
  |   22          0.216660406306872E-02          0.100154246147944E-02         -0.363683165431206E-02
  |   23         -0.236709871783971E-02          0.822868511881482E-03          0.347715893782308E-02
  |   24         -0.225914869243866E-02         -0.932213574210658E-03          0.344306799265213E-02
  |   25          0.249544437055988E-02         -0.468946185562794E-04         -0.321104335433730E-03
  |   26          0.233472765187153E-02         -0.120344848310832E-03         -0.107189428661217E-02
  |   27         -0.257598276498529E-02          0.389325831298506E-04         -0.293044316355059E-03
  |   28         -0.267703244736843E-02          0.451276366184328E-04         -0.747378614065251E-03
  |   29          0.451426376574119E-02          0.209763459461094E-02          0.210334106999997E-02
  |   30          0.460809003447604E-02         -0.201236263378919E-02          0.164896095362774E-02
  |   31         -0.491141548042362E-02         -0.238432718925362E-02         -0.324097541987574E-03
  |   32         -0.473205479450527E-02          0.211084853075904E-02         -0.105175761738087E-02

  ------------------------------------ 
  Start decomposition of the XC Energy 
  ------------------------------------ 
  X and C from original XC functional choice 
  Hartree-Fock Energy :          0.000000000 Ha              0.000000000 eV
  X Energy            :      -2863.246265201 Ha         -77912.895040574 eV
  C Energy            :        -47.974516090 Ha          -1305.453003526 eV
  Total XC Energy     :      -2911.220781291 Ha         -79218.348044100 eV
  ------------------------------------ 
  LDA X and C from self-consistent density 
  X Energy LDA        :      -2659.015273382 Ha         -72355.486995370 eV
  C Energy LDA        :        -74.886927993 Ha          -2037.776991653 eV
  ------------------------------------ 
  End decomposition of the XC Energy 
  ------------------------------------ 

------------------------------------------------------------

------------------------------------------------------------------------------
  Final output of selected total energy values:

  The following output summarizes some interesting total energy values
  at the end of a run (AFTER all relaxation, molecular dynamics, etc.).

  | Total energy of the DFT / Hartree-Fock s.c.f. calculation      :       -3673035.502335107 eV
  | Final zero-broadening corrected energy (caution - metals only) :       -3673035.502335107 eV
  | For reference only, the value of 1 Hartree used in FHI-aims is :             27.211384500 eV
  | For reference only, the overall average (free atom contribution
  | + realspace contribution) of the electrostatic potential after
  | s.c.f. convergence is                                          :            -15.574526594 eV

  Before relying on these values, please be sure to understand exactly which
  total energy value is referred to by a given number. Different objects may
  all carry the same name 'total energy'. Definitions:

  Total energy of the DFT / Hartree-Fock s.c.f. calculation:
  | Note that this energy does not include ANY quantities calculated after the
  | s.c.f. cycle, in particular not ANY RPA, MP2, etc. many-body perturbation terms.

  Final zero-broadening corrected energy:
  | For metallic systems only, a broadening of the occupation numbers at the Fermi
  | level can be extrapolated back to zero broadening by an electron-gas inspired
  | formula. For all systems that are not real metals, this value can be
  | meaningless and should be avoided.

------------------------------------------------------------------------------
  Methods described in the following list of references were used in this FHI-aims run.
  If you publish the results, please make sure to cite these reference if they apply.
  FHI-aims is an academic code, and for our developers (often, Ph.D. students
  and postdocs), scientific credit in the community is essential.
  Thank you for helping us!

  For any use of FHI-aims, please cite:

    Volker Blum, Ralf Gehrke, Felix Hanke, Paula Havu, Ville Havu,
    Xinguo Ren, Karsten Reuter, and Matthias Scheffler
    'Ab initio molecular simulations with numeric atom-centered orbitals'
    Computer Physics Communications 180, 2175-2196 (2009)
    http://dx.doi.org/10.1016/j.cpc.2009.06.022


  The provided symmetry information was generated with SPGlib:

    Atsushi Togo, Yusuke Seto, Dimitar Pashov
    SPGlib 1.7.3 obtained from http://spglib.sourceforge.net
    Copyright (C) 2008 Atsushi Togo


 DFT+U infrastructure was used in your run
 please cite:

 Matthias Kick, Karsten Reuter and Harald Oberhofer,
 Intricacies Of DFT+U, not only in a Numeric Atom Centered Orbital Framework

 Journal of Chemical Theory and Computation
 https://


  The ELSI infrastructure was used in your run to solve the Kohn-Sham electronic structure.
  Please check out http://elsi-interchange.org to learn more.
  If scalability is important for your project, please acknowledge ELSI by citing:

    V. W-z. Yu, F. Corsetti, A. Garcia, W. P. Huhn, M. Jacquelin, W. Jia,
    B. Lange, L. Lin, J. Lu, W. Mi, A. Seifitokaldani, A. Vazquez-Mayagoitia,
    C. Yang, H. Yang, and V. Blum
    'ELSI: A unified software interface for Kohn-Sham electronic structure solvers'
    Computer Physics Communications 222, 267-285 (2018).
    http://dx.doi.org/10.1016/j.cpc.2017.09.007


  For the real-space grid partitioning and parallelization used in this calculation, please cite:

    Ville Havu, Volker Blum, Paula Havu, and Matthias Scheffler,
    'Efficient O(N) integration for all-electron electronic structure calculation'
    'using numerically tabulated basis functions'
    Journal of Computational Physics 228, 8367-8379 (2009).
    http://dx.doi.org/10.1016/j.jcp.2009.08.008

  Of course, there are many other important community references, e.g., those cited in the
  above references. Our list is limited to references that describe implementations in the
  FHI-aims code. The reason is purely practical (length of this list) - please credit others as well.

 * A warning was issued further up regarding the accuracy of onsite integrals.
   An integral with a negative eigenvalue was among the flagged integrals.
   In most standard situations, this warning is probably harmless.
   If needed, this can be verified by adjusting the radial_multiplier flag.

 * A warning was issued further up regarding the CPU load.
   Some CPUs do not participate in the eigenvalue solution.
   In corner cases, this may be the correct behavior. Otherwise,
   consider using a scalapack/elpa version of the code for a parallel treatment.

------------------------------------------------------------
          Leaving FHI-aims.
          Date     :  20240503, Time     :  190522.596

          Computational steps:
          | Number of self-consistency cycles          :           33
          | Number of SCF (re)initializations          :            1

          Detailed time accounting                     :  max(cpu_time)    wall_clock(cpu1)
          | Total time                                 :       85.214 s          85.725 s
          | Preparation time                           :        0.665 s           0.668 s
          | Boundary condition initalization           :        0.294 s           0.294 s
          | Grid partitioning                          :        0.099 s           0.100 s
          | Preloading free-atom quantities on grid    :        0.240 s           0.243 s
          | Free-atom superposition energy             :        0.026 s           0.025 s
          | Total time for integrations                :       18.027 s          18.068 s
          | Total time for solution of K.-S. equations :       19.649 s          19.611 s
          | Total time for density & force components  :       26.329 s          26.372 s
          | Total time for mixing & preconditioning    :        7.824 s           7.661 s
          | Total time for Hartree multipole update    :        0.090 s           0.105 s
          | Total time for Hartree multipole sum       :       10.200 s          10.234 s
          | Total time for total energy evaluation     :        0.243 s           0.172 s
          | Total time for scaled ZORA corrections     :        0.000 s           0.000 s

          Partial memory accounting:
          | Residual value for overall tracked memory usage across tasks:     0.000000 MB (should be 0.000000 MB)
          | Peak values for overall tracked memory usage:
          |   Minimum:       37.897 MB (on task 69 after allocating d_wave)
          |   Maximum:       66.531 MB (on task  1 after allocating eval_tmp)
          |   Average:       56.419 MB
          | Largest tracked array allocation:
          |   Minimum:       10.580 MB (overlap_matrix on task  0)
          |   Maximum:       10.580 MB (overlap_matrix on task  0)
          |   Average:       10.580 MB
          Note:  These values currently only include a subset of arrays which are explicitly tracked.
          The "true" memory usage will be greater.

          Have a nice day.
------------------------------------------------------------
