------------------------------------------------------------
          Invoking FHI-aims ...

          When using FHI-aims, please cite the following reference:

            Volker Blum, Ralf Gehrke, Felix Hanke, Paula Havu,
            Ville Havu, Xinguo Ren, Karsten Reuter, and Matthias Scheffler,
            'Ab Initio Molecular Simulations with Numeric Atom-Centered Orbitals',
            Computer Physics Communications 180, 2175-2196 (2009)

          In addition, many other developments in FHI-aims are likely important for
          your particular application. A partial list of references is given at the end of
          this file. Thank you for giving credit to the authors of these developments.

          For any questions about FHI-aims, please visit our slack channel at

            https://fhi-aims.slack.com

          and our main development and support site at

            https://aims-git.rz-berlin.mpg.de .

          The latter site, in particular, has a wiki to collect information, as well
          as an issue tracker to log discussions, suggest improvements, and report issues
          or bugs. https://aims-git.rz-berlin.mpg.de is also the main development site
          of the project and all new and updated code versions can be obtained there.
          Please send an email to aims-coordinators@fhi-berlin.mpg.de and we will add
          you to these sites. They are for you and everyone is welcome there.

------------------------------------------------------------



  Date     :  20240812, Time     :  212046.578
  Time zero on CPU 1             :   0.147093000000000E+00  s.
  Internal wall clock time zero  :           492729646.578  s.

  FHI-aims created a unique identifier for this run for later identification
  aims_uuid : 6185A554-7105-4B4C-A367-B6CA0EB17DF8

  Build configuration of the current instance of FHI-aims
  -------------------------------------------------------
  FHI-aims version      : 210618
  Commit number         : f9e1e7592
  CMake host system     : Linux-3.10.0-1127.13.1.el7.x86_64
  CMake version         : 3.17.3
  Fortran compiler      : /apps/compilers/intel/2018.2/compilers_and_libraries_2018/linux/mpi/intel64/bin/mpif90 (Intel) version 18.0.2.20180210
  Fortran compiler flags: -O3 -ip -fp-model precise
  C compiler            : /apps/compilers/intel/2018.2/compilers_and_libraries_2018/linux/bin/intel64/icc (Intel) version 18.0.2.20180210
  C compiler flags      : -O3 -ip -fp-model precise -std=gnu99
  ELPA2 kernel          : AVX2
  Using MPI
  Using ScaLAPACK
  Using LibXC
  Using i-PI
  Using RLSY
  Linking against: /apps/compilers/intel/2018.2/compilers_and_libraries_2018/linux/mkl/lib/intel64/libmkl_intel_lp64.so
                   /apps/compilers/intel/2018.2/compilers_and_libraries_2018/linux/mkl/lib/intel64/libmkl_intel_thread.so
                   /apps/compilers/intel/2018.2/compilers_and_libraries_2018/linux/mkl/lib/intel64/libmkl_core.so
                   /apps/compilers/intel/2018.2/compilers_and_libraries_2018/linux/mkl/lib/intel64/libmkl_blacs_intelmpi_lp64.so
                   /apps/compilers/intel/2018.2/compilers_and_libraries_2018/linux/mkl/lib/intel64/libmkl_scalapack_lp64.so
                   /usr/lib64/libpthread.so

  Using      120 parallel tasks.
  Task        0 on host ccs0031 reporting.
  Task        1 on host ccs0031 reporting.
  Task        2 on host ccs0031 reporting.
  Task        3 on host ccs0031 reporting.
  Task        4 on host ccs0031 reporting.
  Task        5 on host ccs0031 reporting.
  Task        6 on host ccs0031 reporting.
  Task        7 on host ccs0031 reporting.
  Task        8 on host ccs0031 reporting.
  Task        9 on host ccs0031 reporting.
  Task       10 on host ccs0031 reporting.
  Task       11 on host ccs0031 reporting.
  Task       12 on host ccs0031 reporting.
  Task       13 on host ccs0031 reporting.
  Task       14 on host ccs0031 reporting.
  Task       15 on host ccs0031 reporting.
  Task       16 on host ccs0031 reporting.
  Task       17 on host ccs0031 reporting.
  Task       18 on host ccs0031 reporting.
  Task       19 on host ccs0031 reporting.
  Task       20 on host ccs0031 reporting.
  Task       21 on host ccs0031 reporting.
  Task       22 on host ccs0031 reporting.
  Task       23 on host ccs0031 reporting.
  Task       24 on host ccs0031 reporting.
  Task       25 on host ccs0031 reporting.
  Task       26 on host ccs0031 reporting.
  Task       27 on host ccs0031 reporting.
  Task       28 on host ccs0031 reporting.
  Task       29 on host ccs0031 reporting.
  Task       30 on host ccs0031 reporting.
  Task       31 on host ccs0031 reporting.
  Task       32 on host ccs0031 reporting.
  Task       33 on host ccs0031 reporting.
  Task       34 on host ccs0031 reporting.
  Task       35 on host ccs0031 reporting.
  Task       36 on host ccs0031 reporting.
  Task       37 on host ccs0031 reporting.
  Task       38 on host ccs0031 reporting.
  Task       39 on host ccs0031 reporting.
  Task       40 on host ccs0095 reporting.
  Task       41 on host ccs0095 reporting.
  Task       42 on host ccs0095 reporting.
  Task       43 on host ccs0095 reporting.
  Task       44 on host ccs0095 reporting.
  Task       45 on host ccs0095 reporting.
  Task       46 on host ccs0095 reporting.
  Task       47 on host ccs0095 reporting.
  Task       48 on host ccs0095 reporting.
  Task       49 on host ccs0095 reporting.
  Task       50 on host ccs0095 reporting.
  Task       51 on host ccs0095 reporting.
  Task       52 on host ccs0095 reporting.
  Task       53 on host ccs0095 reporting.
  Task       54 on host ccs0095 reporting.
  Task       55 on host ccs0095 reporting.
  Task       56 on host ccs0095 reporting.
  Task       57 on host ccs0095 reporting.
  Task       58 on host ccs0095 reporting.
  Task       59 on host ccs0095 reporting.
  Task       60 on host ccs0095 reporting.
  Task       61 on host ccs0095 reporting.
  Task       62 on host ccs0095 reporting.
  Task       63 on host ccs0095 reporting.
  Task       64 on host ccs0095 reporting.
  Task       65 on host ccs0095 reporting.
  Task       66 on host ccs0095 reporting.
  Task       67 on host ccs0095 reporting.
  Task       68 on host ccs0095 reporting.
  Task       69 on host ccs0095 reporting.
  Task       70 on host ccs0095 reporting.
  Task       71 on host ccs0095 reporting.
  Task       72 on host ccs0095 reporting.
  Task       73 on host ccs0095 reporting.
  Task       74 on host ccs0095 reporting.
  Task       75 on host ccs0095 reporting.
  Task       76 on host ccs0095 reporting.
  Task       77 on host ccs0095 reporting.
  Task       78 on host ccs0095 reporting.
  Task       79 on host ccs0095 reporting.
  Task       80 on host ccs0096 reporting.
  Task       81 on host ccs0096 reporting.
  Task       82 on host ccs0096 reporting.
  Task       83 on host ccs0096 reporting.
  Task       84 on host ccs0096 reporting.
  Task       85 on host ccs0096 reporting.
  Task       86 on host ccs0096 reporting.
  Task       87 on host ccs0096 reporting.
  Task       88 on host ccs0096 reporting.
  Task       89 on host ccs0096 reporting.
  Task       90 on host ccs0096 reporting.
  Task       91 on host ccs0096 reporting.
  Task       92 on host ccs0096 reporting.
  Task       93 on host ccs0096 reporting.
  Task       94 on host ccs0096 reporting.
  Task       95 on host ccs0096 reporting.
  Task       96 on host ccs0096 reporting.
  Task       97 on host ccs0096 reporting.
  Task       98 on host ccs0096 reporting.
  Task       99 on host ccs0096 reporting.
  Task      100 on host ccs0096 reporting.
  Task      101 on host ccs0096 reporting.
  Task      102 on host ccs0096 reporting.
  Task      103 on host ccs0096 reporting.
  Task      104 on host ccs0096 reporting.
  Task      105 on host ccs0096 reporting.
  Task      106 on host ccs0096 reporting.
  Task      107 on host ccs0096 reporting.
  Task      108 on host ccs0096 reporting.
  Task      109 on host ccs0096 reporting.
  Task      110 on host ccs0096 reporting.
  Task      111 on host ccs0096 reporting.
  Task      112 on host ccs0096 reporting.
  Task      113 on host ccs0096 reporting.
  Task      114 on host ccs0096 reporting.
  Task      115 on host ccs0096 reporting.
  Task      116 on host ccs0096 reporting.
  Task      117 on host ccs0096 reporting.
  Task      118 on host ccs0096 reporting.
  Task      119 on host ccs0096 reporting.

  Performing system and environment tests:
  *** Environment variable OMP_NUM_THREADS is not set
  *** For performance reasons you might want to set it to 1
  | Checking for ScaLAPACK...
  | Testing pdtran()...
  | All pdtran() tests passed.

  Obtaining array dimensions for all initial allocations:
  
  -----------------------------------------------------------------------
  Parsing control.in (first pass over file, find array dimensions only).
  The contents of control.in will be repeated verbatim below
  unless switched off by setting 'verbatim_writeout .false.' .
  in the first line of control.in .
  -----------------------------------------------------------------------
  
  #===============================================================================
  # FHI-aims file: ./control.in
  # Created using the Atomic Simulation Environment (ASE)
  # Thu May  9 17:33:53 2024
  #===============================================================================
  spin                               none
  relativistic                       atomic_zora scalar
  compute_forces                     .true.
  override_warning_libxc             true
  xc                                 libxc MGGA_X_MBEEF+GGA_C_PBE_SOL
  k_grid                             6 6 6
  occupation_type                    gaussian 0.1
  plus_u_petukhov_mixing             1
  plus_u_use_hydros                  True
  plus_u_matrix_control              True
  sc_accuracy_etot                   1e-06
  sc_accuracy_eev                    0.001
  sc_accuracy_rho                    1e-06
  sc_accuracy_forces                 0.0001
  relax_geometry                     bfgs 0.01
  #===============================================================================
  
  ################################################################################
  #
  #  FHI-aims code project
  #  VB, Fritz-Haber Institut, 2010
  #
  #  Suggested "light" defaults for Cu atom (to be pasted into control.in file)
  #  Be sure to double-check any results obtained with these settings for post-processing,
  #  e.g., with the "tight" defaults and larger basis sets.
  #
  ################################################################################
    species        Cu
  #
      nucleus      29
      mass         63.546
  #
      l_hartree    4
  #
      cut_pot      3.5  1.5  1.0
      basis_dep_cutoff    1e-4
  #
      radial_base        53 5.0
      radial_multiplier  1
      angular_grids       specified
        division   0.5231   50
        division   0.8642  110
        division   1.1767  194
        division   1.5041  302
  #      division   1.9293  434
  #      division   2.0065  590
  #      division   2.0466  770
  #      division   2.0877  974
  #      division   2.4589 1202
        outer_grid   302
  ################################################################################
  #
  #  Definition of "minimal" basis
  #
  ################################################################################
  #     valence basis states
      valence      4  s   1.
      valence      3  p   6.
      valence      3  d  10.
  #     ion occupancy
      ion_occ      4  s   0.
      ion_occ      3  p   6.
      ion_occ      3  d   9.
  ################################################################################
  #
  #  Suggested additional basis functions. For production calculations,
  #  uncomment them one after another (the most important basis functions are
  #  listed first).
  #
  #  Constructed for dimers: 1.8, 2.2, 3.0, 4.0 Ang
  #
  ################################################################################
  #  "First tier" - improvements: -211.42 meV to -9.17 meV
       ionic 4 p auto
       hydro 4 f 7.4
       hydro 3 s 2.6
       hydro 3 d 5
  #     hydro 5 g 10.4
  #  "Second tier" - improvements: -2.49 meV to -1.08 meV
  #     hydro 4 p 5.8
  #     hydro 3 d 2.7
  #     hydro 6 h 15.2
  #     hydro 5 s 10.8
  #     hydro 4 f 16
  #  "Third tier" - improvements: -0.50 meV to -0.21 meV
  #     hydro 4 d 6
  #     hydro 3 p 2.4
  #     hydro 4 f 6.4
  #     hydro 3 s 6.8
  #     hydro 5 g 11.2
  #  "Fourth tier" - improvements: -0.13 meV to -0.05 meV
  #     hydro 4 p 7
  #     hydro 4 s 4
  #     hydro 6 h 14
  #     hydro 4 d 8.6
  #     hydro 5 f 15.2
  plus_u 3 d 2.755
  hubbard_coefficient 1 -0.551 0 0
  
  ################################################################################
  #
  #  FHI-aims code project
  #  VB, Fritz-Haber Institut, 2009
  #
  #  Suggested "light" defaults for O atom (to be pasted into control.in file)
  #  Be sure to double-check any results obtained with these settings for post-processing,
  #  e.g., with the "tight" defaults and larger basis sets.
  #
  ################################################################################
    species        O
  #     global species definitions
      nucleus             8
      mass                15.9994
  #
      l_hartree           4
  #
      cut_pot             3.5  1.5  1.0
      basis_dep_cutoff    1e-4
  #
      radial_base         36 5.0
      radial_multiplier   1
       angular_grids specified
        division   0.2659   50
        division   0.4451  110
        division   0.6052  194
        division   0.7543  302
  #      division   0.8014  434
  #      division   0.8507  590
  #      division   0.8762  770
  #      division   0.9023  974
  #      division   1.2339 1202
  #      outer_grid 974
        outer_grid 302
  ################################################################################
  #
  #  Definition of "minimal" basis
  #
  ################################################################################
  #     valence basis states
      valence      2  s   2.
      valence      2  p   4.
  #     ion occupancy
      ion_occ      2  s   1.
      ion_occ      2  p   3.
  ################################################################################
  #
  #  Suggested additional basis functions. For production calculations,
  #  uncomment them one after another (the most important basis functions are
  #  listed first).
  #
  #  Constructed for dimers: 1.0 A, 1.208 A, 1.5 A, 2.0 A, 3.0 A
  #
  ################################################################################
  #  "First tier" - improvements: -699.05 meV to -159.38 meV
       hydro 2 p 1.8
       hydro 3 d 7.6
       hydro 3 s 6.4
  #  "Second tier" - improvements: -49.91 meV to -5.39 meV
  #     hydro 4 f 11.6
  #     hydro 3 p 6.2
  #     hydro 3 d 5.6
  #     hydro 5 g 17.6
  #     hydro 1 s 0.75
  #  "Third tier" - improvements: -2.83 meV to -0.50 meV
  #     ionic 2 p auto
  #     hydro 4 f 10.8
  #     hydro 4 d 4.7
  #     hydro 2 s 6.8
  #  "Fourth tier" - improvements: -0.40 meV to -0.12 meV
  #     hydro 3 p 5
  #     hydro 3 s 3.3
  #     hydro 5 g 15.6
  #     hydro 4 f 17.6
  #     hydro 4 d 14
  # Further basis functions - -0.08 meV and below
  #     hydro 3 s 2.1
  #     hydro 4 d 11.6
  #     hydro 3 p 16
  #     hydro 2 s 17.2
  plus_u 2 p 0
  hubbard_coefficient 1 0 0 0
  
  -----------------------------------------------------------------------
  Completed first pass over input file control.in .
  -----------------------------------------------------------------------
  
  
  -----------------------------------------------------------------------
  Parsing geometry.in (first pass over file, find array dimensions only).
  The contents of geometry.in will be repeated verbatim below
  unless switched off by setting 'verbatim_writeout .false.' .
  in the first line of geometry.in .
  -----------------------------------------------------------------------
  
  #=======================================================
  # FHI-aims file: ./geometry.in
  # Created using the Atomic Simulation Environment (ASE)
  # Thu May  9 17:33:53 2024
  #=======================================================
  lattice_vector 4.2670000000000003 0.0000000000000000 0.0000000000000000
  lattice_vector 0.0000000000000000 4.2670000000000003 0.0000000000000000
  lattice_vector 0.0000000000000000 0.0000000000000000 4.2670000000000003
  atom_frac 0.0000000000000000 0.5000000000000000 0.5000000000000000 Cu
  atom_frac 0.5000000000000000 0.5000000000000000 0.0000000000000000 Cu
  atom_frac 0.5000000000000000 0.0000000000000000 0.5000000000000000 Cu
  atom_frac 0.0000000000000000 0.0000000000000000 0.0000000000000000 Cu
  atom_frac 0.7500000000000000 0.7500000000000000 0.7500000000000000 O
  atom_frac 0.2500000000000000 0.2500000000000000 0.2500000000000000 O
  
  -----------------------------------------------------------------------
  Completed first pass over input file geometry.in .
  -----------------------------------------------------------------------
  

  Basic array size parameters:
  | Number of species                 :        2
  | Number of atoms                   :        6
  | Number of lattice vectors         :        3
  | Max. basis fn. angular momentum   :        3
  | Max. atomic/ionic basis occupied n:        4
  | Max. number of basis fn. types    :        3
  | Max. radial fns per species/type  :        7
  | Max. logarithmic grid size        :     1406
  | Max. radial integration grid size :       53
  | Max. angular integration grid size:      302
  | Max. angular grid division number :        8
  | Radial grid for Hartree potential :     1406
  | Number of spin channels           :        1
  | Max. number of (n,l) shells per species with '+U' treatment:        1

------------------------------------------------------------
          Reading file control.in.
------------------------------------------------------------
  Spin treatment: No spin polarisation.
  Scalar relativistic treatment of kinetic energy: on-site free-atom approximation to ZORA.
  Forces will be computed.
  XC: Using LibXC. Please refer to LibXC output for further details.
  Using libxc - Initializing
  Libxc version: 4.3.4


  ** PLEASE ** be careful using LibXC. Whilst most of the LDA, GGA and MGGA functionals,
  and hybrid variations therein, should be stable (though we always recommend testing!),
  there are several fancy functionals with e.g. range-separation, like HSE03/HSE06/LC-PBEh,
  and also MGGA functionals that depend on the laplacian of the density, like BR89,
  that are not fully implemented due to the infrastrucutre for these functionals being incomplete or non-generic.
  If you want to use these functionals please contact the development team and we will work on them with you!

  You have selected libxc functional MGGA_X_MBEEF (249)
    - Description: mBEEF exchange
    - Type: MGGA(Exchange)
    - Reference to Literature:
      [1] J. Wellendorff, K. T. Lundgaard, K. W. Jacobsen, and T. Bligaard, J. Chem. Phys. 140, 144107 (2014)

  You have selected libxc functional GGA_C_PBE_SOL (133)
    - Description: Perdew, Burke & Ernzerhof SOL
    - Type: GGA(Correlation)
    - Reference to Literature:
      [1] J. P. Perdew, A. Ruzsinszky, G. I. Csonka, O. A. Vydrov, G. E. Scuseria, L. A. Constantin, X. Zhou, and K. Burke, Phys.

  Switching on meta-ggas
  Found k-point grid:         6         6         6
  Occupation type: Gaussian broadening, width =   0.100000E+00 eV.
  Fixing petukhov mixing factor to   1.000000000000
  hydrogenic basis funktions also used for DFT+U reference states
  Convergence accuracy of total energy:  0.1000E-05
  Convergence accuracy of sum of eigenvalues:  0.1000E-02
  Convergence accuracy of self-consistent charge density:  0.1000E-05
  Convergence accuracy of forces:  0.1000E-03
  Geometry relaxation: Modified BFGS - TRM (trust radius method) for lattice optimization.
  Convergence accuracy for geometry relaxation: Maximum force <   0.100000E-01 eV/A.
 
  Reading configuration options for species Cu                  .
  | Found nuclear charge :  29.0000
  | Found atomic mass :    63.5460000000000      amu
  | Found l_max for Hartree potential  :   4
  | Found cutoff potl. onset [A], width [A], scale factor :    3.50000    1.50000    1.00000
  | Threshold for basis-dependent cutoff potential is   0.100000E-03
  | Found data for basic radial integration grid :    53 points, outermost radius =    5.000 A
  | Found multiplier for basic radial grid :   1
  | Found angular grid specification: user-specified.
  | Specified grid contains     5 separate shells.
  | Check grid settings after all constraints further below.
  | Found free-atom valence shell :  4 s   1.000
  | Found free-atom valence shell :  3 p   6.000
  | Found free-atom valence shell :  3 d  10.000
  | Found free-ion valence shell :  4 s   0.000
  | Found free-ion valence shell :  3 p   6.000
  | Found free-ion valence shell :  3 d   9.000
  | Found ionic basis function :  4 p , default cutoff radius.
  | Found hydrogenic basis function :  4 f   7.400
  | Found hydrogenic basis function :  3 s   2.600
  | Found hydrogenic basis function :  3 d   5.000
  | Found request for '+U' treatment for  3 d shell, U =     2.755000 eV.
  | Found coefficents for linear combination of hubbard projectors 
  Species Cu                  : Missing cutoff potential type.
  Defaulting to exp(1/x)/(1-x)^2 type cutoff potential.
  Species Cu: No 'logarithmic' tag. Using default grid for free atom:
  | Default logarithmic grid data [bohr] : 0.1000E-03 0.1000E+03 0.1012E+01
  | Will include ionic basis functions of  2.0-fold positive Cu                   ion.
  Species Cu: On-site basis accuracy parameter (for Gram-Schmidt orthonormalisation) not specified.
  Using default value basis_acc =  0.1000000E-03.
  Species Cu                  : Using default innermost maximum threshold i_radial=  2 for radial functions.
  Species Cu                  : Default cutoff onset for free atom density etc. : 0.35000000E+01 AA.
  Species Cu                  : Basic radial grid will be enhanced according to radial_multiplier =   1, to contain    53 grid points.
 
  Reading configuration options for species O                   .
  | Found nuclear charge :   8.0000
  | Found atomic mass :    15.9994000000000      amu
  | Found l_max for Hartree potential  :   4
  | Found cutoff potl. onset [A], width [A], scale factor :    3.50000    1.50000    1.00000
  | Threshold for basis-dependent cutoff potential is   0.100000E-03
  | Found data for basic radial integration grid :    36 points, outermost radius =    5.000 A
  | Found multiplier for basic radial grid :   1
  | Found angular grid specification: user-specified.
  | Specified grid contains     5 separate shells.
  | Check grid settings after all constraints further below.
  | Found free-atom valence shell :  2 s   2.000
  | Found free-atom valence shell :  2 p   4.000
  | Found free-ion valence shell :  2 s   1.000
  | Found free-ion valence shell :  2 p   3.000
  | Found hydrogenic basis function :  2 p   1.800
  | Found hydrogenic basis function :  3 d   7.600
  | Found hydrogenic basis function :  3 s   6.400
  | Found request for '+U' treatment for  2 p shell, U =     0.000000 eV.
  | Found coefficents for linear combination of hubbard projectors 
  Species O                   : Missing cutoff potential type.
  Defaulting to exp(1/x)/(1-x)^2 type cutoff potential.
  Species O : No 'logarithmic' tag. Using default grid for free atom:
  | Default logarithmic grid data [bohr] : 0.1000E-03 0.1000E+03 0.1012E+01
  Species O : On-site basis accuracy parameter (for Gram-Schmidt orthonormalisation) not specified.
  Using default value basis_acc =  0.1000000E-03.
  Species O                   : Using default innermost maximum threshold i_radial=  2 for radial functions.
  Species O                   : Default cutoff onset for free atom density etc. : 0.35000000E+01 AA.
  Species O                   : Basic radial grid will be enhanced according to radial_multiplier =   1, to contain    36 grid points.
 
  Finished reading input file 'control.in'.
 
------------------------------------------------------------


------------------------------------------------------------
          Reading geometry description geometry.in.
------------------------------------------------------------
  | The smallest distance between any two atoms is         1.84766520 AA.
  | The first atom of this pair is atom number                      4 .
  | The second atom of this pair is atom number                     5 .
  | Wigner-Seitz cell of the first atom image           0     0     0 .
  | (The Wigner-Seitz cell of the second atom is 0 0 0  by definition.)

  Symmetry information by spglib:
  | Precision set to  0.1E-04
  | Number of Operations  : 48
  | Space group           : 224
  | International         : Pn-3m
  | Schoenflies           : Oh^4
  Input structure read successfully.
  The structure contains        6 atoms,  and a total of        132.000 electrons.

  Input geometry:
  | Unit cell:
  |        4.26700000        0.00000000        0.00000000
  |        0.00000000        4.26700000        0.00000000
  |        0.00000000        0.00000000        4.26700000
  | Atomic structure:
  |       Atom                x [A]            y [A]            z [A]
  |    1: Species Cu            0.00000000        2.13350000        2.13350000
  |    2: Species Cu            2.13350000        2.13350000        0.00000000
  |    3: Species Cu            2.13350000        0.00000000        2.13350000
  |    4: Species Cu            0.00000000        0.00000000        0.00000000
  |    5: Species O             3.20025000        3.20025000        3.20025000
  |    6: Species O             1.06675000        1.06675000        1.06675000

  Lattice parameters for 3D lattice (in Angstroms) :     4.267000    4.267000    4.267000
  Angle(s) between unit vectors (in degrees)       :    90.000000   90.000000   90.000000


  Quantities derived from the lattice vectors:
  | Reciprocal lattice vector 1:  1.472507  0.000000  0.000000
  | Reciprocal lattice vector 2:  0.000000  1.472507  0.000000
  | Reciprocal lattice vector 3:  0.000000  0.000000  1.472507
  | Unit cell volume                               :   0.776905E+02  A^3

  Fractional coordinates:
                         L1                L2                L3
       atom_frac         0.00000000        0.50000000        0.50000000  Cu
       atom_frac         0.50000000        0.50000000        0.00000000  Cu
       atom_frac         0.50000000        0.00000000        0.50000000  Cu
       atom_frac         0.00000000        0.00000000        0.00000000  Cu
       atom_frac         0.75000000        0.75000000        0.75000000  O
       atom_frac         0.25000000        0.25000000        0.25000000  O

 
  Finished reading input file 'control.in'.
 

------------------------------------------------------------
          Reading geometry description geometry.in.
------------------------------------------------------------
 
  Consistency checks for stacksize environment parameter are next.
 
  | Maximum stacksize for task 0: unlimited
  | Maximum stacksize for task 1: unlimited
  | Maximum stacksize for task 2: unlimited
  | Maximum stacksize for task 3: unlimited
  | Maximum stacksize for task 4: unlimited
  | Maximum stacksize for task 5: unlimited
  | Maximum stacksize for task 6: unlimited
  | Maximum stacksize for task 7: unlimited
  | Maximum stacksize for task 8: unlimited
  | Maximum stacksize for task 9: unlimited
  | Maximum stacksize for task 10: unlimited
  | Maximum stacksize for task 11: unlimited
  | Maximum stacksize for task 12: unlimited
  | Maximum stacksize for task 13: unlimited
  | Maximum stacksize for task 14: unlimited
  | Maximum stacksize for task 15: unlimited
  | Maximum stacksize for task 16: unlimited
  | Maximum stacksize for task 17: unlimited
  | Maximum stacksize for task 18: unlimited
  | Maximum stacksize for task 19: unlimited
  | Maximum stacksize for task 20: unlimited
  | Maximum stacksize for task 21: unlimited
  | Maximum stacksize for task 22: unlimited
  | Maximum stacksize for task 23: unlimited
  | Maximum stacksize for task 24: unlimited
  | Maximum stacksize for task 25: unlimited
  | Maximum stacksize for task 26: unlimited
  | Maximum stacksize for task 27: unlimited
  | Maximum stacksize for task 28: unlimited
  | Maximum stacksize for task 29: unlimited
  | Maximum stacksize for task 30: unlimited
  | Maximum stacksize for task 31: unlimited
  | Maximum stacksize for task 32: unlimited
  | Maximum stacksize for task 33: unlimited
  | Maximum stacksize for task 34: unlimited
  | Maximum stacksize for task 35: unlimited
  | Maximum stacksize for task 36: unlimited
  | Maximum stacksize for task 37: unlimited
  | Maximum stacksize for task 38: unlimited
  | Maximum stacksize for task 39: unlimited
  | Maximum stacksize for task 40: unlimited
  | Maximum stacksize for task 41: unlimited
  | Maximum stacksize for task 42: unlimited
  | Maximum stacksize for task 43: unlimited
  | Maximum stacksize for task 44: unlimited
  | Maximum stacksize for task 45: unlimited
  | Maximum stacksize for task 46: unlimited
  | Maximum stacksize for task 47: unlimited
  | Maximum stacksize for task 48: unlimited
  | Maximum stacksize for task 49: unlimited
  | Maximum stacksize for task 50: unlimited
  | Maximum stacksize for task 51: unlimited
  | Maximum stacksize for task 52: unlimited
  | Maximum stacksize for task 53: unlimited
  | Maximum stacksize for task 54: unlimited
  | Maximum stacksize for task 55: unlimited
  | Maximum stacksize for task 56: unlimited
  | Maximum stacksize for task 57: unlimited
  | Maximum stacksize for task 58: unlimited
  | Maximum stacksize for task 59: unlimited
  | Maximum stacksize for task 60: unlimited
  | Maximum stacksize for task 61: unlimited
  | Maximum stacksize for task 62: unlimited
  | Maximum stacksize for task 63: unlimited
  | Maximum stacksize for task 64: unlimited
  | Maximum stacksize for task 65: unlimited
  | Maximum stacksize for task 66: unlimited
  | Maximum stacksize for task 67: unlimited
  | Maximum stacksize for task 68: unlimited
  | Maximum stacksize for task 69: unlimited
  | Maximum stacksize for task 70: unlimited
  | Maximum stacksize for task 71: unlimited
  | Maximum stacksize for task 72: unlimited
  | Maximum stacksize for task 73: unlimited
  | Maximum stacksize for task 74: unlimited
  | Maximum stacksize for task 75: unlimited
  | Maximum stacksize for task 76: unlimited
  | Maximum stacksize for task 77: unlimited
  | Maximum stacksize for task 78: unlimited
  | Maximum stacksize for task 79: unlimited
  | Maximum stacksize for task 80: unlimited
  | Maximum stacksize for task 81: unlimited
  | Maximum stacksize for task 82: unlimited
  | Maximum stacksize for task 83: unlimited
  | Maximum stacksize for task 84: unlimited
  | Maximum stacksize for task 85: unlimited
  | Maximum stacksize for task 86: unlimited
  | Maximum stacksize for task 87: unlimited
  | Maximum stacksize for task 88: unlimited
  | Maximum stacksize for task 89: unlimited
  | Maximum stacksize for task 90: unlimited
  | Maximum stacksize for task 91: unlimited
  | Maximum stacksize for task 92: unlimited
  | Maximum stacksize for task 93: unlimited
  | Maximum stacksize for task 94: unlimited
  | Maximum stacksize for task 95: unlimited
  | Maximum stacksize for task 96: unlimited
  | Maximum stacksize for task 97: unlimited
  | Maximum stacksize for task 98: unlimited
  | Maximum stacksize for task 99: unlimited
  | Maximum stacksize for task 100: unlimited
  | Maximum stacksize for task 101: unlimited
  | Maximum stacksize for task 102: unlimited
  | Maximum stacksize for task 103: unlimited
  | Maximum stacksize for task 104: unlimited
  | Maximum stacksize for task 105: unlimited
  | Maximum stacksize for task 106: unlimited
  | Maximum stacksize for task 107: unlimited
  | Maximum stacksize for task 108: unlimited
  | Maximum stacksize for task 109: unlimited
  | Maximum stacksize for task 110: unlimited
  | Maximum stacksize for task 111: unlimited
  | Maximum stacksize for task 112: unlimited
  | Maximum stacksize for task 113: unlimited
  | Maximum stacksize for task 114: unlimited
  | Maximum stacksize for task 115: unlimited
  | Maximum stacksize for task 116: unlimited
  | Maximum stacksize for task 117: unlimited
  | Maximum stacksize for task 118: unlimited
  | Maximum stacksize for task 119: unlimited
  | Current stacksize for task 0: unlimited
  | Current stacksize for task 1: unlimited
  | Current stacksize for task 2: unlimited
  | Current stacksize for task 3: unlimited
  | Current stacksize for task 4: unlimited
  | Current stacksize for task 5: unlimited
  | Current stacksize for task 6: unlimited
  | Current stacksize for task 7: unlimited
  | Current stacksize for task 8: unlimited
  | Current stacksize for task 9: unlimited
  | Current stacksize for task 10: unlimited
  | Current stacksize for task 11: unlimited
  | Current stacksize for task 12: unlimited
  | Current stacksize for task 13: unlimited
  | Current stacksize for task 14: unlimited
  | Current stacksize for task 15: unlimited
  | Current stacksize for task 16: unlimited
  | Current stacksize for task 17: unlimited
  | Current stacksize for task 18: unlimited
  | Current stacksize for task 19: unlimited
  | Current stacksize for task 20: unlimited
  | Current stacksize for task 21: unlimited
  | Current stacksize for task 22: unlimited
  | Current stacksize for task 23: unlimited
  | Current stacksize for task 24: unlimited
  | Current stacksize for task 25: unlimited
  | Current stacksize for task 26: unlimited
  | Current stacksize for task 27: unlimited
  | Current stacksize for task 28: unlimited
  | Current stacksize for task 29: unlimited
  | Current stacksize for task 30: unlimited
  | Current stacksize for task 31: unlimited
  | Current stacksize for task 32: unlimited
  | Current stacksize for task 33: unlimited
  | Current stacksize for task 34: unlimited
  | Current stacksize for task 35: unlimited
  | Current stacksize for task 36: unlimited
  | Current stacksize for task 37: unlimited
  | Current stacksize for task 38: unlimited
  | Current stacksize for task 39: unlimited
  | Current stacksize for task 40: unlimited
  | Current stacksize for task 41: unlimited
  | Current stacksize for task 42: unlimited
  | Current stacksize for task 43: unlimited
  | Current stacksize for task 44: unlimited
  | Current stacksize for task 45: unlimited
  | Current stacksize for task 46: unlimited
  | Current stacksize for task 47: unlimited
  | Current stacksize for task 48: unlimited
  | Current stacksize for task 49: unlimited
  | Current stacksize for task 50: unlimited
  | Current stacksize for task 51: unlimited
  | Current stacksize for task 52: unlimited
  | Current stacksize for task 53: unlimited
  | Current stacksize for task 54: unlimited
  | Current stacksize for task 55: unlimited
  | Current stacksize for task 56: unlimited
  | Current stacksize for task 57: unlimited
  | Current stacksize for task 58: unlimited
  | Current stacksize for task 59: unlimited
  | Current stacksize for task 60: unlimited
  | Current stacksize for task 61: unlimited
  | Current stacksize for task 62: unlimited
  | Current stacksize for task 63: unlimited
  | Current stacksize for task 64: unlimited
  | Current stacksize for task 65: unlimited
  | Current stacksize for task 66: unlimited
  | Current stacksize for task 67: unlimited
  | Current stacksize for task 68: unlimited
  | Current stacksize for task 69: unlimited
  | Current stacksize for task 70: unlimited
  | Current stacksize for task 71: unlimited
  | Current stacksize for task 72: unlimited
  | Current stacksize for task 73: unlimited
  | Current stacksize for task 74: unlimited
  | Current stacksize for task 75: unlimited
  | Current stacksize for task 76: unlimited
  | Current stacksize for task 77: unlimited
  | Current stacksize for task 78: unlimited
  | Current stacksize for task 79: unlimited
  | Current stacksize for task 80: unlimited
  | Current stacksize for task 81: unlimited
  | Current stacksize for task 82: unlimited
  | Current stacksize for task 83: unlimited
  | Current stacksize for task 84: unlimited
  | Current stacksize for task 85: unlimited
  | Current stacksize for task 86: unlimited
  | Current stacksize for task 87: unlimited
  | Current stacksize for task 88: unlimited
  | Current stacksize for task 89: unlimited
  | Current stacksize for task 90: unlimited
  | Current stacksize for task 91: unlimited
  | Current stacksize for task 92: unlimited
  | Current stacksize for task 93: unlimited
  | Current stacksize for task 94: unlimited
  | Current stacksize for task 95: unlimited
  | Current stacksize for task 96: unlimited
  | Current stacksize for task 97: unlimited
  | Current stacksize for task 98: unlimited
  | Current stacksize for task 99: unlimited
  | Current stacksize for task 100: unlimited
  | Current stacksize for task 101: unlimited
  | Current stacksize for task 102: unlimited
  | Current stacksize for task 103: unlimited
  | Current stacksize for task 104: unlimited
  | Current stacksize for task 105: unlimited
  | Current stacksize for task 106: unlimited
  | Current stacksize for task 107: unlimited
  | Current stacksize for task 108: unlimited
  | Current stacksize for task 109: unlimited
  | Current stacksize for task 110: unlimited
  | Current stacksize for task 111: unlimited
  | Current stacksize for task 112: unlimited
  | Current stacksize for task 113: unlimited
  | Current stacksize for task 114: unlimited
  | Current stacksize for task 115: unlimited
  | Current stacksize for task 116: unlimited
  | Current stacksize for task 117: unlimited
  | Current stacksize for task 118: unlimited
  | Current stacksize for task 119: unlimited
 
  Consistency checks for the contents of control.in are next.
 
  MPI_IN_PLACE appears to work with this MPI implementation.
  | Keeping use_mpi_in_place .true. (see manual).
  Target number of points in a grid batch is not set. Defaulting to  100
  Method for grid partitioning is not set. Defaulting to parallel hash+maxmin partitioning.
  Batch size limit is not set. Defaulting to    200
  By default, will store active basis functions for each batch.
  If in need of memory, prune_basis_once .false. can be used to disable this option.
  communication_type for Hartree potential was not specified.
  Defaulting to calc_hartree .
  Defaulting to Pulay charge density mixer.
  Pulay mixer: Number of relevant iterations not set.
  Defaulting to    8 iterations.
  Pulay mixer: Number of initial linear mixing iterations not set.
  Defaulting to    0 iterations.
  Work space size for distributed Hartree potential not set.
  Defaulting to   0.200000E+03 MB.
  Mixing parameter for charge density mixing has not been set.
  Using default: charge_mix_param =     0.0500.
  The mixing parameter will be adjusted in iteration number     2 of the first full s.c.f. cycle only.
  Algorithm-dependent basis array size parameters:
  | n_max_pulay                         :        8
  Maximum number of self-consistency iterations not provided.
  Presetting  1000 iterations.
  Presetting      1001 iterations before the initial mixing cycle
  is restarted anyway using the sc_init_iter criterion / keyword.
  Presetting a factor      1.000 between actual scf density residual
  and density convergence criterion sc_accuracy_rho below which sc_init_iter
  takes no effect.
  No maximum number of relaxation steps, defaulting to     1000
  Default initial Hessian is Lindh matrix (thres = 15.00) plus  0.200000E+01 eV/A^2 times unity.
  No maximum energy tolerance for TRM/BFGS moves, defaulting to   0.100000E-02
  Maximum energy tolerance by which TRM/BFGS trajectory may increase over multiple steps:   0.300000E-02
  No harmonic length scale. Defaulting to   0.250000E-01 A.
  No trust radius initializer. Defaulting to   0.200000E+00 A.
  Forces evaluation will include force correction term due to incomplete self-consistency (default).
  Handling of forces: Unphysical translation and rotation will be removed from forces.
  No accuracy limit for integral partition fn. given. Defaulting to  0.1000E-14.
  No threshold value for u(r) in integrations given. Defaulting to  0.1000E-05.
  No accuracy for occupation numbers given. Defaulting to  0.1000E-12.
  No threshold value for occupation numbers given. Defaulting to  0.0000E+00.
  No accuracy for fermi level given. Defaulting to  0.1000E-19.
  Maximum # of iterations to find E_F not set. Defaulting to  200.
  Preferred method for the eigenvalue solver ('KS_method') not specified in 'control.in'.
  Defaulting to serial version, LAPACK (via ELSI), since more k-points than CPUs available.
  Will not use alltoall communication since running on < 1024 CPUs.
  Threshold for basis singularities not set.
  Default threshold for basis singularities:  0.1000E-04
  partition_type (choice of integration weights) for integrals was not specified.
  | Using a version of the partition function of Stratmann and coworkers ('stratmann_sparse').
  | At each grid point, the set of atoms used to build the partition table is smoothly restricted to
  | only those atoms whose free-atom density would be non-zero at that grid point.
  Partitioning for Hartree potential was not defined. Using partition_type for integrals.
  | Adjusted default value of keyword multip_moments_threshold to:       0.10000000E-11
  | This value may affect high angular momentum components of the Hartree potential in periodic systems.
  Angular momentum expansion for Kerker preconditioner not set explicitly.
  | Using default value of   0
  No explicit requirement for turning off preconditioner.
  | By default, it will be turned off when the charge convergence reaches
  | sc_accuracy_rho  =   0.100000E-05
  | sc_accuracy_eev  =   0.100000E-02
  | sc_accuracy_etot =   0.100000E-05
  No special mixing parameter while Kerker preconditioner is on.
  Using default: charge_mix_param =     0.0500.
  No q(lm)/r^(l+1) cutoff set for long-range Hartree potential.
  | Using default value of  0.100000E-09 .
  | Verify using the multipole_threshold keyword.
  Defaulting to new monopole extrapolation.
  Density update method: automatic selection selected.
  Using density matrix based charge density update.
 * Warning: DFT+U requires using density matrix based charge density update.
  Using density matrix based charge density update.
  Using packed matrix style: index .
  Geometry relaxation: A file "geometry.in.next_step" is written out by default after each step.
  | This file contains the geometry of the current relaxation step as well as
  | the current Hessian matrix needed to restart the relaxation algorithm.
  | If you do not want part or all of this information, use the keywords
  | "write_restart_geometry" or "hessian_to_restart_geometry" to switch the output off.
  Defaulting to use time-reversal symmetry for k-point grid.
  Charge integration errors on the 3D integration grid will be compensated
  by explicit normalization and distribution of residual charges.
  Use the "compensate_multipole_errors" flag to change this behaviour.
  Set 'collect_eigenvectors' to be '.true.' for all serial calculations. This is mandatory.
  Set 'collect_eigenvectors' to be '.true.' for KS_method lapack_fast and serial.
 
  Consistency checks for the contents of geometry.in are next.
 

  Range separation radius for Ewald summation (hartree_convergence_parameter):      3.29909632 bohr.
  Number of empty states per atom not set in control.in - providing a guess from actual geometry.
  | Total number of empty states used during s.c.f. cycle:       28
  If you use a very high smearing, use empty_states (per atom!) in control.in to increase this value.

  Structure-dependent array size parameters: 
  | Maximum number of distinct radial functions  :       17
  | Maximum number of basis functions            :      152
  | Number of Kohn-Sham states (occupied + empty):       94
------------------------------------------------------------

------------------------------------------------------------
          Preparing all fixed parts of the calculation.
------------------------------------------------------------
  Determining machine precision:
    2.225073858507201E-308
  Setting up grids for atomic and cluster calculations.

  Creating wave function, potential, and density for free atoms.

  Species: Cu

  List of occupied orbitals and eigenvalues:
    n    l              occ      energy [Ha]    energy [eV]
    1    0           2.0000      -328.025961     -8926.0405
    2    0           2.0000       -39.024163     -1061.9015
    3    0           2.0000        -4.189145      -113.9924
    4    0           1.0000        -0.172644        -4.6979
    2    1           6.0000       -33.720116      -917.5710
    3    1           6.0000        -2.640767       -71.8589
    3    2          10.0000        -0.190112        -5.1732


  Species: O

  List of occupied orbitals and eigenvalues:
    n    l              occ      energy [Ha]    energy [eV]
    1    0           2.0000       -18.786109      -511.1960
    2    0           2.0000        -0.872635       -23.7456
    2    1           4.0000        -0.337687        -9.1889


  Adding cutoff potential to free-atom effective potential.
  Creating fixed part of basis set: Ionic, confined, hydrogenic.
 
  Cu                   ion:

  List of free ionic orbitals and eigenvalues:
    n    l      energy [Ha]    energy [eV]
    1    0      -328.986260     -8952.1716
    2    0       -39.979362     -1087.8938
    3    0        -5.137523      -139.7991
    2    1       -34.674612      -943.5442
    3    1        -3.585296       -97.5609
    3    2        -1.102046       -29.9882


  List of ionic basis orbitals and eigenvalues:
    n    l      energy [Ha]    energy [eV]    outer radius [A]
    4    1        -0.564629       -15.3643       4.558700

 
  Cu                   hydrogenic:
 
  List of hydrogenic basis orbitals: 
    n    l      effective z      eigenvalue [eV]  inner max. [A]     outer max. [A]     outer radius [A]   
    4    3         7.400000       -46.5648           1.145240           1.145240           4.503309
    3    0         2.600000        -9.1731           0.150509           2.473881           4.614772
    3    2         5.000000       -37.7929           0.953362           0.953362           4.394539
 
 
  O                    hydrogenic:
 
  List of hydrogenic basis orbitals: 
    n    l      effective z      eigenvalue [eV]  inner max. [A]     outer max. [A]     outer radius [A]   
    2    1         1.800000       -10.9749           1.164242           1.164242           4.578029
    3    2         7.600000       -87.3180           0.624125           0.624125           3.251020
    3    0         6.400000       -61.9207           0.061167           1.081902           4.001998
 
  Creating atomic-like basis functions for current effective potential.

  Species Cu                  :

  List of atomic basis orbitals and eigenvalues:
    n    l      energy [Ha]    energy [eV]    outer radius [A]
    1    0      -328.025961     -8926.0405       0.367398
    2    0       -39.024163     -1061.9015       1.064244
    3    0        -4.189145      -113.9924       3.120718
    4    0        -0.172644        -4.6979       4.558700
    2    1       -33.720116      -917.5710       1.117579
    3    1        -2.640767       -71.8589       3.748807
    3    2        -0.190112        -5.1732       4.503309


  Species O                   :

  List of atomic basis orbitals and eigenvalues:
    n    l      energy [Ha]    energy [eV]    outer radius [A]
    1    0       -18.786109      -511.1960       1.433179
    2    0        -0.872635       -23.7456       4.413171
    2    1        -0.337687        -9.1889       4.522403

  Assembling full basis from fixed parts.
 * Warning - Since '+U' treatment was requested,
 * the basis-dependent cutoff is turned off automatically.
  | Species Cu :   atomic orbital   1 s accepted.
  | Species Cu :   atomic orbital   2 s accepted.
  | Species Cu :   atomic orbital   3 s accepted.
  | Species Cu :   atomic orbital   4 s accepted.
  | Species Cu :    hydro orbital   3 s accepted.
  | Species Cu :   atomic orbital   2 p accepted.
  | Species Cu :   atomic orbital   3 p accepted.
  | Species Cu :    ionic orbital   4 p accepted.
  | Species Cu :   atomic orbital   3 d accepted.
  | Species Cu :    hydro orbital   3 d accepted.
  | Species Cu :    hydro orbital   4 f accepted.
 * Warning - Since '+U' treatment was requested,
 * the basis-dependent cutoff is turned off automatically.
  | Species O :   atomic orbital   1 s accepted.
  | Species O :   atomic orbital   2 s accepted.
  | Species O :    hydro orbital   3 s accepted.
  | Species O :   atomic orbital   2 p accepted.
  | Species O :    hydro orbital   2 p accepted.
  | Species O :    hydro orbital   3 d accepted.
 
  Basis size parameters after reduction:
  | Total number of radial functions:       17
  | Total number of basis functions :      152
 
  Per-task memory consumption for arrays in subroutine allocate_ext:
  |           6.123504MB.
  Testing on-site integration grid accuracy.
  |  Species  Function  <phi|h_atom|phi> (log., in eV)  <phi|h_atom|phi> (rad., in eV)
           1        1              -8926.0405464823              -8926.0324186517
           1        2              -1061.9014969702              -1061.9014031430
           1        3               -113.9924266384               -113.9924245660
           1        4                 -4.7078890827                 -4.7207550622
           1        5                  5.3983504076                  5.2010101385 ***
           1        6               -917.5710345973               -917.5710333995
           1        7                -71.8589325808                -71.8589322233
           1        8                  1.4234098779                  1.4188284178
           1        9                 -5.1734129125                 -5.1736839267
           1       10                 24.3171247649                 24.3171243610
           1       11                 29.3619534588                 29.3616914156
           2       12               -511.1960429777               -511.1959399133
           2       13                -23.7455964041                -23.7455972542
           2       14                 17.3746964700                 17.3748057881
           2       15                 -9.1890598667                 -9.1892026751
           2       16                  8.1915160719                  8.1720639763
           2       17                 45.8005976646                 45.8005620229
 * Note: Onsite integrals marked "***" above are less accurate than
 * onsite_accuracy_threshold =    0.03000 eV. Usually, this is harmless.
 * When in doubt, tighten the "radial" and/or "radial_multiplier" flags to check.

  Preparing densities etc. for the partition functions (integrals / Hartree potential).

  Preparations completed.
  max(cpu_time)          :      0.465 s.
  Wall clock time (cpu1) :      0.467 s.
------------------------------------------------------------

------------------------------------------------------------
          Begin self-consistency loop: Initialization.

          Date     :  20240812, Time     :  212047.206
------------------------------------------------------------

  Initializing index lists of integration centers etc. from given atomic structure:
  Mapping all atomic coordinates to central unit cell.

  Initializing the k-points
  Using symmetry for reducing the k-points
  | k-points reduced from:      216 to      112
  | Number of k-points                             :       112
  The eigenvectors in the calculations are COMPLEX.
  | K-points in task   0:         0
  | K-points in task   1:         1
  | K-points in task   2:         1
  | K-points in task   3:         1
  | K-points in task   4:         1
  | K-points in task   5:         1
  | K-points in task   6:         1
  | K-points in task   7:         1
  | K-points in task   8:         1
  | K-points in task   9:         1
  | K-points in task  10:         1
  | K-points in task  11:         1
  | K-points in task  12:         1
  | K-points in task  13:         1
  | K-points in task  14:         1
  | K-points in task  15:         1
  | K-points in task  16:         1
  | K-points in task  17:         1
  | K-points in task  18:         1
  | K-points in task  19:         1
  | K-points in task  20:         1
  | K-points in task  21:         1
  | K-points in task  22:         1
  | K-points in task  23:         1
  | K-points in task  24:         1
  | K-points in task  25:         1
  | K-points in task  26:         1
  | K-points in task  27:         1
  | K-points in task  28:         1
  | K-points in task  29:         1
  | K-points in task  30:         1
  | K-points in task  31:         1
  | K-points in task  32:         1
  | K-points in task  33:         1
  | K-points in task  34:         1
  | K-points in task  35:         1
  | K-points in task  36:         1
  | K-points in task  37:         1
  | K-points in task  38:         1
  | K-points in task  39:         1
  | K-points in task  40:         1
  | K-points in task  41:         1
  | K-points in task  42:         1
  | K-points in task  43:         1
  | K-points in task  44:         1
  | K-points in task  45:         1
  | K-points in task  46:         1
  | K-points in task  47:         1
  | K-points in task  48:         1
  | K-points in task  49:         1
  | K-points in task  50:         1
  | K-points in task  51:         1
  | K-points in task  52:         1
  | K-points in task  53:         1
  | K-points in task  54:         1
  | K-points in task  55:         1
  | K-points in task  56:         1
  | K-points in task  57:         1
  | K-points in task  58:         1
  | K-points in task  59:         1
  | K-points in task  60:         1
  | K-points in task  61:         1
  | K-points in task  62:         1
  | K-points in task  63:         1
  | K-points in task  64:         1
  | K-points in task  65:         1
  | K-points in task  66:         1
  | K-points in task  67:         1
  | K-points in task  68:         1
  | K-points in task  69:         1
  | K-points in task  70:         1
  | K-points in task  71:         1
  | K-points in task  72:         1
  | K-points in task  73:         1
  | K-points in task  74:         1
  | K-points in task  75:         1
  | K-points in task  76:         1
  | K-points in task  77:         1
  | K-points in task  78:         1
  | K-points in task  79:         1
  | K-points in task  80:         1
  | K-points in task  81:         1
  | K-points in task  82:         1
  | K-points in task  83:         1
  | K-points in task  84:         1
  | K-points in task  85:         1
  | K-points in task  86:         1
  | K-points in task  87:         1
  | K-points in task  88:         1
  | K-points in task  89:         1
  | K-points in task  90:         1
  | K-points in task  91:         1
  | K-points in task  92:         1
  | K-points in task  93:         1
  | K-points in task  94:         1
  | K-points in task  95:         1
  | K-points in task  96:         1
  | K-points in task  97:         1
  | K-points in task  98:         1
  | K-points in task  99:         1
  | K-points in task 100:         1
  | K-points in task 101:         1
  | K-points in task 102:         1
  | K-points in task 103:         1
  | K-points in task 104:         1
  | K-points in task 105:         1
  | K-points in task 106:         1
  | K-points in task 107:         1
  | K-points in task 108:         1
  | K-points in task 109:         1
  | K-points in task 110:         1
  | K-points in task 111:         1
  | K-points in task 112:         1
  | K-points in task 113:         0
  | K-points in task 114:         0
  | K-points in task 115:         0
  | K-points in task 116:         0
  | K-points in task 117:         0
  | K-points in task 118:         0
  | K-points in task 119:         0
  | Number of basis functions in the Hamiltonian integrals :      3909
  | Number of basis functions in a single unit cell        :       152
  | Number of centers in hartree potential         :      1117
  | Number of centers in hartree multipole         :       601
  | Number of centers in electron density summation:       447
  | Number of centers in basis integrals           :       498
  | Number of centers in integrals                 :       187
  | Number of centers in hamiltonian               :       459
  | Consuming        185 KiB for k_phase.
  | Number of super-cells (origin) [n_cells]                     :         729
  | Number of super-cells (after PM_index) [n_cells]             :         106
  | Number of super-cells in hamiltonian [n_cells_in_hamiltonian]:         106
  | Size of matrix packed + index [n_hamiltonian_matrix_size] :      363267

  Initializing relaxation algorithms.
  Finished initialization of distributed Hessian storage.
  | Global dimension:        18
  | BLACS block size:         1
  | Number of workers:       18

  | Estimated reciprocal-space cutoff momentum G_max:         2.85193442 bohr^-1 .
  | Reciprocal lattice points for long-range Hartree potential:     202
  Partitioning the integration grid into batches with parallel hashing+maxmin method.
  | Number of batches:      564
  | Maximal batch size:     135
  | Minimal batch size:      52
  | Average batch size:      73.305
  | Standard deviation of batch sizes:      18.202

  Integration load balanced across   120 MPI tasks.
  Work distribution over tasks is as follows:
  Task     0 has        340 integration points.
  Task     1 has        345 integration points.
  Task     2 has        352 integration points.
  Task     3 has        327 integration points.
  Task     4 has        345 integration points.
  Task     5 has        319 integration points.
  Task     6 has        399 integration points.
  Task     7 has        336 integration points.
  Task     8 has        348 integration points.
  Task     9 has        338 integration points.
  Task    10 has        379 integration points.
  Task    11 has        372 integration points.
  Task    12 has        340 integration points.
  Task    13 has        342 integration points.
  Task    14 has        350 integration points.
  Task    15 has        352 integration points.
  Task    16 has        312 integration points.
  Task    17 has        349 integration points.
  Task    18 has        373 integration points.
  Task    19 has        348 integration points.
  Task    20 has        329 integration points.
  Task    21 has        338 integration points.
  Task    22 has        321 integration points.
  Task    23 has        319 integration points.
  Task    24 has        345 integration points.
  Task    25 has        319 integration points.
  Task    26 has        311 integration points.
  Task    27 has        339 integration points.
  Task    28 has        347 integration points.
  Task    29 has        322 integration points.
  Task    30 has        342 integration points.
  Task    31 has        322 integration points.
  Task    32 has        314 integration points.
  Task    33 has        350 integration points.
  Task    34 has        347 integration points.
  Task    35 has        318 integration points.
  Task    36 has        347 integration points.
  Task    37 has        320 integration points.
  Task    38 has        346 integration points.
  Task    39 has        329 integration points.
  Task    40 has        324 integration points.
  Task    41 has        321 integration points.
  Task    42 has        373 integration points.
  Task    43 has        354 integration points.
  Task    44 has        347 integration points.
  Task    45 has        328 integration points.
  Task    46 has        332 integration points.
  Task    47 has        370 integration points.
  Task    48 has        330 integration points.
  Task    49 has        394 integration points.
  Task    50 has        322 integration points.
  Task    51 has        322 integration points.
  Task    52 has        371 integration points.
  Task    53 has        350 integration points.
  Task    54 has        348 integration points.
  Task    55 has        313 integration points.
  Task    56 has        390 integration points.
  Task    57 has        337 integration points.
  Task    58 has        341 integration points.
  Task    59 has        343 integration points.
  Task    60 has        367 integration points.
  Task    61 has        370 integration points.
  Task    62 has        395 integration points.
  Task    63 has        343 integration points.
  Task    64 has        340 integration points.
  Task    65 has        347 integration points.
  Task    66 has        369 integration points.
  Task    67 has        308 integration points.
  Task    68 has        370 integration points.
  Task    69 has        348 integration points.
  Task    70 has        319 integration points.
  Task    71 has        346 integration points.
  Task    72 has        346 integration points.
  Task    73 has        375 integration points.
  Task    74 has        349 integration points.
  Task    75 has        372 integration points.
  Task    76 has        338 integration points.
  Task    77 has        308 integration points.
  Task    78 has        375 integration points.
  Task    79 has        357 integration points.
  Task    80 has        341 integration points.
  Task    81 has        359 integration points.
  Task    82 has        368 integration points.
  Task    83 has        309 integration points.
  Task    84 has        350 integration points.
  Task    85 has        346 integration points.
  Task    86 has        327 integration points.
  Task    87 has        321 integration points.
  Task    88 has        343 integration points.
  Task    89 has        334 integration points.
  Task    90 has        344 integration points.
  Task    91 has        339 integration points.
  Task    92 has        321 integration points.
  Task    93 has        338 integration points.
  Task    94 has        361 integration points.
  Task    95 has        344 integration points.
  Task    96 has        341 integration points.
  Task    97 has        323 integration points.
  Task    98 has        374 integration points.
  Task    99 has        314 integration points.
  Task   100 has        341 integration points.
  Task   101 has        355 integration points.
  Task   102 has        345 integration points.
  Task   103 has        370 integration points.
  Task   104 has        341 integration points.
  Task   105 has        326 integration points.
  Task   106 has        375 integration points.
  Task   107 has        373 integration points.
  Task   108 has        373 integration points.
  Task   109 has        340 integration points.
  Task   110 has        342 integration points.
  Task   111 has        317 integration points.
  Task   112 has        341 integration points.
  Task   113 has        351 integration points.
  Task   114 has        329 integration points.
  Task   115 has        349 integration points.
  Task   116 has        369 integration points.
  Task   117 has        386 integration points.
  Task   118 has        335 integration points.
  Task   119 has        346 integration points.
  Initializing partition tables, free-atom densities, potentials, etc. across the integration grid (initialize_grid_storage).
  | initialize_grid_storage: Actual outermost partition radius vs. multipole_radius_free
  | (-- VB: in principle, multipole_radius_free should be larger, hence this output)
  | Species        1: Confinement radius =              4.999999999999999 AA, multipole_radius_free =              5.027070365347909 AA.
  | Species        1: outer_partition_radius set to              5.027070365347909 AA .
  | Species        2: Confinement radius =              4.999999999999999 AA, multipole_radius_free =              5.048384829883283 AA.
  | Species        2: outer_partition_radius set to              5.048384829883283 AA .
  | The sparse table of interatomic distances needs       1040.98 kbyte instead of      1984.03 kbyte of memory.
  | Net number of integration points:    41344
  | of which are non-zero points    :    34856
  | Numerical average free-atom electrostatic potential    :    -15.77805361 eV
  Renormalizing the initial density to the exact electron count on the 3D integration grid.
  | Initial density: Formal number of electrons (from input files) :     132.0000000000
  | Integrated number of electrons on 3D grid     :     132.0044728535
  | Charge integration error                      :       0.0044728535
  | Normalization factor for density and gradient :       0.9999661159
  Renormalizing the free-atom superposition density to the exact electron count on the 3D integration grid.
  | Formal number of electrons (from input files) :     132.0000000000
  | Integrated number of electrons on 3D grid     :     132.0044728535
  | Charge integration error                      :       0.0044728535
  | Normalization factor for density and gradient :       0.9999661159
  Obtaining max. number of non-zero basis functions in each batch (get_n_compute_maxes).
  | Maximal number of non-zero basis functions:      854 in task     0
  | Maximal number of non-zero basis functions:      839 in task     1
  | Maximal number of non-zero basis functions:      916 in task     2
  | Maximal number of non-zero basis functions:      863 in task     3
  | Maximal number of non-zero basis functions:      763 in task     4
  | Maximal number of non-zero basis functions:      862 in task     5
  | Maximal number of non-zero basis functions:      881 in task     6
  | Maximal number of non-zero basis functions:      862 in task     7
  | Maximal number of non-zero basis functions:      878 in task     8
  | Maximal number of non-zero basis functions:      828 in task     9
  | Maximal number of non-zero basis functions:      871 in task    10
  | Maximal number of non-zero basis functions:      783 in task    11
  | Maximal number of non-zero basis functions:      845 in task    12
  | Maximal number of non-zero basis functions:      878 in task    13
  | Maximal number of non-zero basis functions:      868 in task    14
  | Maximal number of non-zero basis functions:      880 in task    15
  | Maximal number of non-zero basis functions:      829 in task    16
  | Maximal number of non-zero basis functions:      793 in task    17
  | Maximal number of non-zero basis functions:      837 in task    18
  | Maximal number of non-zero basis functions:      890 in task    19
  | Maximal number of non-zero basis functions:      811 in task    20
  | Maximal number of non-zero basis functions:      884 in task    21
  | Maximal number of non-zero basis functions:      841 in task    22
  | Maximal number of non-zero basis functions:      839 in task    23
  | Maximal number of non-zero basis functions:      807 in task    24
  | Maximal number of non-zero basis functions:      807 in task    25
  | Maximal number of non-zero basis functions:      808 in task    26
  | Maximal number of non-zero basis functions:      783 in task    27
  | Maximal number of non-zero basis functions:      812 in task    28
  | Maximal number of non-zero basis functions:      884 in task    29
  | Maximal number of non-zero basis functions:      808 in task    30
  | Maximal number of non-zero basis functions:      842 in task    31
  | Maximal number of non-zero basis functions:      865 in task    32
  | Maximal number of non-zero basis functions:      881 in task    33
  | Maximal number of non-zero basis functions:      829 in task    34
  | Maximal number of non-zero basis functions:      810 in task    35
  | Maximal number of non-zero basis functions:      835 in task    36
  | Maximal number of non-zero basis functions:      787 in task    37
  | Maximal number of non-zero basis functions:      839 in task    38
  | Maximal number of non-zero basis functions:      912 in task    39
  | Maximal number of non-zero basis functions:      841 in task    40
  | Maximal number of non-zero basis functions:      864 in task    41
  | Maximal number of non-zero basis functions:      836 in task    42
  | Maximal number of non-zero basis functions:      919 in task    43
  | Maximal number of non-zero basis functions:      875 in task    44
  | Maximal number of non-zero basis functions:      886 in task    45
  | Maximal number of non-zero basis functions:      830 in task    46
  | Maximal number of non-zero basis functions:      864 in task    47
  | Maximal number of non-zero basis functions:      863 in task    48
  | Maximal number of non-zero basis functions:      920 in task    49
  | Maximal number of non-zero basis functions:      810 in task    50
  | Maximal number of non-zero basis functions:      862 in task    51
  | Maximal number of non-zero basis functions:      881 in task    52
  | Maximal number of non-zero basis functions:      856 in task    53
  | Maximal number of non-zero basis functions:      787 in task    54
  | Maximal number of non-zero basis functions:      873 in task    55
  | Maximal number of non-zero basis functions:      878 in task    56
  | Maximal number of non-zero basis functions:      840 in task    57
  | Maximal number of non-zero basis functions:      810 in task    58
  | Maximal number of non-zero basis functions:      908 in task    59
  | Maximal number of non-zero basis functions:      828 in task    60
  | Maximal number of non-zero basis functions:      888 in task    61
  | Maximal number of non-zero basis functions:      890 in task    62
  | Maximal number of non-zero basis functions:      877 in task    63
  | Maximal number of non-zero basis functions:      908 in task    64
  | Maximal number of non-zero basis functions:      834 in task    65
  | Maximal number of non-zero basis functions:      901 in task    66
  | Maximal number of non-zero basis functions:      791 in task    67
  | Maximal number of non-zero basis functions:      811 in task    68
  | Maximal number of non-zero basis functions:      850 in task    69
  | Maximal number of non-zero basis functions:      873 in task    70
  | Maximal number of non-zero basis functions:      860 in task    71
  | Maximal number of non-zero basis functions:      966 in task    72
  | Maximal number of non-zero basis functions:      890 in task    73
  | Maximal number of non-zero basis functions:      890 in task    74
  | Maximal number of non-zero basis functions:      794 in task    75
  | Maximal number of non-zero basis functions:      845 in task    76
  | Maximal number of non-zero basis functions:      805 in task    77
  | Maximal number of non-zero basis functions:      890 in task    78
  | Maximal number of non-zero basis functions:      905 in task    79
  | Maximal number of non-zero basis functions:      810 in task    80
  | Maximal number of non-zero basis functions:      850 in task    81
  | Maximal number of non-zero basis functions:      807 in task    82
  | Maximal number of non-zero basis functions:      910 in task    83
  | Maximal number of non-zero basis functions:      861 in task    84
  | Maximal number of non-zero basis functions:      843 in task    85
  | Maximal number of non-zero basis functions:      843 in task    86
  | Maximal number of non-zero basis functions:      789 in task    87
  | Maximal number of non-zero basis functions:      792 in task    88
  | Maximal number of non-zero basis functions:      881 in task    89
  | Maximal number of non-zero basis functions:      834 in task    90
  | Maximal number of non-zero basis functions:      816 in task    91
  | Maximal number of non-zero basis functions:      845 in task    92
  | Maximal number of non-zero basis functions:      816 in task    93
  | Maximal number of non-zero basis functions:      874 in task    94
  | Maximal number of non-zero basis functions:      829 in task    95
  | Maximal number of non-zero basis functions:      849 in task    96
  | Maximal number of non-zero basis functions:      820 in task    97
  | Maximal number of non-zero basis functions:      875 in task    98
  | Maximal number of non-zero basis functions:      852 in task    99
  | Maximal number of non-zero basis functions:      832 in task   100
  | Maximal number of non-zero basis functions:      818 in task   101
  | Maximal number of non-zero basis functions:      817 in task   102
  | Maximal number of non-zero basis functions:      830 in task   103
  | Maximal number of non-zero basis functions:      851 in task   104
  | Maximal number of non-zero basis functions:      966 in task   105
  | Maximal number of non-zero basis functions:      798 in task   106
  | Maximal number of non-zero basis functions:      872 in task   107
  | Maximal number of non-zero basis functions:      849 in task   108
  | Maximal number of non-zero basis functions:      861 in task   109
  | Maximal number of non-zero basis functions:      845 in task   110
  | Maximal number of non-zero basis functions:      864 in task   111
  | Maximal number of non-zero basis functions:      908 in task   112
  | Maximal number of non-zero basis functions:      798 in task   113
  | Maximal number of non-zero basis functions:      874 in task   114
  | Maximal number of non-zero basis functions:      862 in task   115
  | Maximal number of non-zero basis functions:      810 in task   116
  | Maximal number of non-zero basis functions:      794 in task   117
  | Maximal number of non-zero basis functions:      839 in task   118
  | Maximal number of non-zero basis functions:      845 in task   119
  Allocating        0.000 MB for KS_eigenvector_complex
  Integrating Hamiltonian matrix: batch-based integration.
  Time summed over all CPUs for integration: real work        6.743 s, elapsed        8.057 s
  Integrating overlap matrix.
  Time summed over all CPUs for integration: real work        4.547 s, elapsed        5.545 s
  Decreasing sparse matrix size:
  | Tolerance:  0.1000E-12
  Hamiltonian matrix
  | Array has   308536 nonzero elements out of   363267 elements
  | Sparsity factor is 0.151
  Overlap matrix
  | Array has   283116 nonzero elements out of   363267 elements
  | Sparsity factor is 0.221
  New size of hamiltonian matrix:      309775

  Updating Kohn-Sham eigenvalues and eigenvectors using ELSI and the (modified) LAPACK eigensolver.

  Obtaining occupation numbers and chemical potential using ELSI.
  | Chemical potential (Fermi level):    -3.89099499 eV
  Writing Kohn-Sham eigenvalues.
  K-point:       1 at    0.000000    0.000000    0.000000 (in units of recip. lattice)

  State    Occupation    Eigenvalue [Ha]    Eigenvalue [eV]
      1       2.00000        -328.032752        -8926.22535
      2       2.00000        -328.032752        -8926.22535
      3       2.00000        -328.032752        -8926.22535
      4       2.00000        -328.032752        -8926.22535
      5       2.00000         -39.031391        -1062.09820
      6       2.00000         -39.031391        -1062.09820
      7       2.00000         -39.031391        -1062.09820
      8       2.00000         -39.031391        -1062.09820
      9       2.00000         -33.727440         -917.77033
     10       2.00000         -33.727440         -917.77033
     11       2.00000         -33.727440         -917.77033
     12       2.00000         -33.727440         -917.77033
     13       2.00000         -33.727180         -917.76325
     14       2.00000         -33.727180         -917.76325
     15       2.00000         -33.727180         -917.76325
     16       2.00000         -33.727180         -917.76325
     17       2.00000         -33.727180         -917.76325
     18       2.00000         -33.727180         -917.76325
     19       2.00000         -33.727180         -917.76325
     20       2.00000         -33.727180         -917.76325
     21       2.00000         -18.855271         -513.07802
     22       2.00000         -18.855271         -513.07802
     23       2.00000          -4.200149         -114.29186
     24       2.00000          -4.200085         -114.29012
     25       2.00000          -4.200085         -114.29012
     26       2.00000          -4.200085         -114.29012
     27       2.00000          -2.657136          -72.30434
     28       2.00000          -2.656495          -72.28690
     29       2.00000          -2.656495          -72.28690
     30       2.00000          -2.656495          -72.28690
     31       2.00000          -2.651098          -72.14005
     32       2.00000          -2.651098          -72.14005
     33       2.00000          -2.650778          -72.13135
     34       2.00000          -2.650778          -72.13135
     35       2.00000          -2.650778          -72.13135
     36       2.00000          -2.650642          -72.12764
     37       2.00000          -2.650642          -72.12764
     38       2.00000          -2.650642          -72.12764
     39       2.00000          -1.014316          -27.60094
     40       2.00000          -0.991849          -26.98959
     41       2.00000          -0.517927          -14.09351
     42       2.00000          -0.517927          -14.09351
     43       2.00000          -0.517927          -14.09351
     44       2.00000          -0.460294          -12.52525
     45       2.00000          -0.460294          -12.52525
     46       2.00000          -0.460294          -12.52525
     47       2.00000          -0.356593           -9.70339
     48       2.00000          -0.249023           -6.77625
     49       2.00000          -0.249023           -6.77625
     50       2.00000          -0.246032           -6.69486
     51       2.00000          -0.246032           -6.69486
     52       2.00000          -0.246032           -6.69486
     53       2.00000          -0.202377           -5.50695
     54       2.00000          -0.202377           -5.50695
     55       2.00000          -0.198425           -5.39942
     56       2.00000          -0.198425           -5.39942
     57       2.00000          -0.198425           -5.39942
     58       2.00000          -0.191210           -5.20310
     59       2.00000          -0.191210           -5.20310
     60       2.00000          -0.191210           -5.20310
     61       2.00000          -0.181987           -4.95213
     62       2.00000          -0.181987           -4.95213
     63       2.00000          -0.181987           -4.95213
     64       1.76954          -0.146108           -3.97579
     65       1.76954          -0.146108           -3.97579
     66       1.76954          -0.146108           -3.97579
     67       0.51862          -0.141314           -3.84535
     68       0.51862          -0.141314           -3.84535
     69       0.00000          -0.130196           -3.54281
     70       0.00000           0.087891            2.39163
     71       0.00000           0.087891            2.39163
     72       0.00000           0.087891            2.39163
     73       0.00000           0.168737            4.59156
     74       0.00000           0.168737            4.59156
     75       0.00000           0.168737            4.59156
     76       0.00000           0.193047            5.25307
     77       0.00000           0.356593            9.70339
[...]
      7       2.00000         -39.154701        -1065.45362
      8       2.00000         -39.154667        -1065.45271
      9       2.00000         -33.664267         -916.05132
     10       2.00000         -33.664267         -916.05132
     11       2.00000         -33.664267         -916.05132
     12       2.00000         -33.664267         -916.05131
     13       2.00000         -33.655876         -915.82298
     14       2.00000         -33.655876         -915.82298
     15       2.00000         -33.655876         -915.82298
     16       2.00000         -33.655876         -915.82298
     17       2.00000         -33.655876         -915.82298
     18       2.00000         -33.655876         -915.82298
     19       2.00000         -33.655875         -915.82297
     20       2.00000         -33.655875         -915.82297
     21       2.00000         -19.019963         -517.55952
     22       2.00000         -19.019957         -517.55935
     23       2.00000          -4.244800         -115.50688
     24       2.00000          -4.244784         -115.50644
     25       2.00000          -4.244784         -115.50644
     26       2.00000          -4.244784         -115.50644
     27       2.00000          -2.642782          -71.91375
     28       2.00000          -2.642081          -71.89469
     29       2.00000          -2.642081          -71.89469
     30       2.00000          -2.642081          -71.89469
     31       2.00000          -2.624292          -71.41061
     32       2.00000          -2.624292          -71.41061
     33       2.00000          -2.624001          -71.40271
     34       2.00000          -2.624001          -71.40271
     35       2.00000          -2.624001          -71.40271
     36       2.00000          -2.623856          -71.39875
     37       2.00000          -2.623856          -71.39875
     38       2.00000          -2.623856          -71.39875
     39       2.00000          -0.986332          -26.83947
     40       2.00000          -0.961530          -26.16456
     41       2.00000          -0.464841          -12.64897
     42       2.00000          -0.464841          -12.64897
     43       2.00000          -0.464841          -12.64897
     44       2.00000          -0.377459          -10.27118
     45       2.00000          -0.377459          -10.27118
     46       2.00000          -0.377459          -10.27118
     47       2.00000          -0.361716           -9.84279
     48       2.00000          -0.336944           -9.16872
     49       2.00000          -0.336944           -9.16872
     50       2.00000          -0.312880           -8.51390
     51       2.00000          -0.312880           -8.51390
     52       2.00000          -0.312880           -8.51390
     53       2.00000          -0.311848           -8.48582
     54       2.00000          -0.311848           -8.48582
     55       2.00000          -0.311848           -8.48582
     56       2.00000          -0.302684           -8.23646
     57       2.00000          -0.302684           -8.23646
     58       2.00000          -0.292685           -7.96435
     59       2.00000          -0.292685           -7.96435
     60       2.00000          -0.292685           -7.96435
     61       2.00000          -0.276464           -7.52298
     62       2.00000          -0.276464           -7.52298
     63       2.00000          -0.276464           -7.52298
     64       2.00000          -0.178969           -4.86999
     65       2.00000          -0.178969           -4.86999
     66       2.00000          -0.178969           -4.86999
     67       0.00000          -0.138126           -3.75859
     68       0.00000          -0.138126           -3.75859
     69       0.00000          -0.136796           -3.72241
     70       0.00000           0.129430            3.52197
     71       0.00000           0.129430            3.52197
     72       0.00000           0.129430            3.52197
     73       0.00000           0.185962            5.06029
     74       0.00000           0.185962            5.06029
     75       0.00000           0.185962            5.06029
     76       0.00000           0.239481            6.51661
     77       0.00000           0.374696           10.19601
     78       0.00000           0.374696           10.19601
     79       0.00000           0.374696           10.19601
     80       0.00000           0.449130           12.22145
     81       0.00000           0.449130           12.22145
     82       0.00000           0.449130           12.22145
     83       0.00000           0.498479           13.56430
     84       0.00000           0.498479           13.56430
     85       0.00000           0.498479           13.56430
     86       0.00000           0.502928           13.68536
     87       0.00000           0.502928           13.68536
     88       0.00000           0.944796           25.70921
     89       0.00000           0.969491           26.38120
     90       0.00000           0.969491           26.38120
     91       0.00000           0.969491           26.38120
     92       0.00000           0.975582           26.54693
     93       0.00000           0.996932           27.12791
     94       0.00000           0.996932           27.12791

  What follows are estimated values for band gap, HOMO, LUMO, etc.
  | They are estimated on a discrete k-point grid and not necessarily exact.
  | For converged numbers, create a DOS and/or band structure plot on a denser k-grid.

  Highest occupied state (VBM) at     -4.84215274 eV (relative to internal zero)
  | Occupation number:      2.00000000
  | K-point:       4 at    0.000000    0.000000    0.500000 (in units of recip. lattice)

  Lowest unoccupied state (CBM) at    -3.75859281 eV (relative to internal zero)
  | Occupation number:      0.00000000
  | K-point:       1 at    0.000000    0.000000    0.000000 (in units of recip. lattice)

  ESTIMATED overall HOMO-LUMO gap:      1.08355993 eV between HOMO at k-point 4 and LUMO at k-point 1
  | This appears to be an indirect band gap.
  | Smallest direct gap :      1.11139741 eV for k_point 1 at    0.000000    0.000000    0.000000 (in units of recip. lattice)
  The gap value is above 0.2 eV. Unless you are using a very sparse k-point grid,
  this system is most likely an insulator or a semiconductor.
  | Chemical Potential                          :    -4.21075254 eV

  Self-consistency cycle converged.


------------------------------------------------------------
  End self-consistency iteration #   119       :  max(cpu_time)    wall_clock(cpu1)
  | Time for this iteration                    :        1.596 s           1.608 s
  | Charge density & force component update    :        1.297 s           1.300 s
  | Density mixing                             :        0.011 s           0.001 s
  | Hartree multipole update                   :        0.001 s           0.002 s
  | Hartree multipole summation                :        0.100 s           0.100 s
  | Hartree pot. SCF incomplete forces         :        0.063 s           0.063 s
  | Integration                                :        0.106 s           0.106 s
  | Solution of K.-S. eqns.                    :        0.012 s           0.013 s
  | Total energy evaluation                    :        0.004 s           0.003 s

  Partial memory accounting:
  | Current value for overall tracked memory usage:
  |   Minimum:        5.916 MB (on task   0)
  |   Maximum:        6.134 MB (on task   1)
  |   Average:        6.120 MB
  | Peak value for overall tracked memory usage:
  |   Minimum:       26.293 MB (on task   4 after allocating d_wave)
  |   Maximum:       33.153 MB (on task  72 after allocating d_wave)
  |   Average:       29.134 MB
  | Largest tracked array allocation so far:
  |   Minimum:        4.715 MB (hessian_basis_wave on task   4)
  |   Maximum:        7.119 MB (hamiltonian_shell on task  72)
  |   Average:        5.531 MB
  Note:  These values currently only include a subset of arrays which are explicitly tracked.
  The "true" memory usage will be greater.
------------------------------------------------------------
  Removing unitary transformations (pure translations, rotations) from forces on atoms.
  Atomic forces before filtering:
  | Net force on center of mass :  -0.202453E-06 -0.232363E-06 -0.229127E-06 eV/A
  Atomic forces after filtering:
  | Net force on center of mass :   0.850707E-22  0.127606E-21  0.850707E-22 eV/A

  Energy and forces in a compact form:
  | Total energy uncorrected      :         -0.185391287828820E+06 eV
  | Total energy corrected        :         -0.185391287828820E+06 eV  <-- do not rely on this value for anything but (periodic) metals
  | Electronic free energy        :         -0.185391287828820E+06 eV
  Total atomic forces (unitary forces cleaned) [eV/Ang]:
  |    1          0.633942757267247E-07         -0.879889177227782E-07         -0.749485196030846E-07
  |    2         -0.864117675857836E-07         -0.614911444057634E-07          0.392610787057382E-07
  |    3         -0.783803908890396E-07          0.466882906421534E-07         -0.707444496836235E-07
  |    4          0.336389036118490E-07          0.251521555398882E-07          0.303281227763418E-07
  |    5         -0.144817145523280E-06         -0.173215742459613E-06         -0.288304327883065E-06
  |    6          0.212576124659529E-06          0.250855358406113E-06          0.364408095687693E-06

  ------------------------------------ 
  Start decomposition of the XC Energy 
  ------------------------------------ 
  X and C from original XC functional choice 
  Hartree-Fock Energy :          0.000000000 Ha              0.000000000 eV
  X Energy            :       -292.123353453 Ha          -7949.080892228 eV
  C Energy            :         -7.014179012 Ha           -190.865522039 eV
  Total XC Energy     :       -299.137532464 Ha          -8139.946414266 eV
  ------------------------------------ 
  LDA X and C from self-consistent density 
  X Energy LDA        :       -267.372321364 Ha          -7275.571041287 eV
  C Energy LDA        :        -11.443430316 Ha           -311.391582317 eV
  ------------------------------------ 
  End decomposition of the XC Energy 
  ------------------------------------ 

------------------------------------------------------------
  Relaxation / MD: End force evaluation.       :  max(cpu_time)    wall_clock(cpu1)
  | Time for this force evaluation             :       38.518 s          41.930 s

------------------------------------------------------------
  Geometry optimization: Attempting to predict improved coordinates.

  Removing unitary transformations (pure translations, rotations) from forces on atoms.
  Atomic forces before filtering:
  | Net force on center of mass :   0.850707E-22  0.127606E-21  0.850707E-22 eV/A
  Atomic forces after filtering:
  | Net force on center of mass :   0.000000E+00  0.425353E-22  0.000000E+00 eV/A
  Net remaining forces (excluding translations, rotations) in present geometry:
  || Forces on atoms   || =   0.364408E-06 eV/A.
  Maximum force component is  0.364408E-06 eV/A.
  Present geometry is converged.

------------------------------------------------------------
  Final atomic structure:
                         x [A]             y [A]             z [A]
  lattice_vector         4.26700000        0.00000000        0.00000000
  lattice_vector         0.00000000        4.26700000        0.00000000
  lattice_vector         0.00000000        0.00000000        4.26700000

            atom         0.00000000        2.13350000        2.13350000  Cu
            atom         2.13350000        2.13350000        0.00000000  Cu
            atom         2.13350000        0.00000000        2.13350000  Cu
            atom         0.00000000        0.00000000        0.00000000  Cu
            atom         3.20025000        3.20025000        3.20025000  O
            atom         1.06675000        1.06675000        1.06675000  O

  Fractional coordinates:
                         L1                L2                L3
       atom_frac         0.00000000        0.50000000        0.50000000  Cu
       atom_frac         0.50000000        0.50000000        0.00000000  Cu
       atom_frac         0.50000000        0.00000000        0.50000000  Cu
       atom_frac         0.00000000        0.00000000        0.00000000  Cu
       atom_frac         0.75000000        0.75000000        0.75000000  O
       atom_frac         0.25000000        0.25000000        0.25000000  O
------------------------------------------------------------

------------------------------------------------------------------------------
  Final output of selected total energy values:

  The following output summarizes some interesting total energy values
  at the end of a run (AFTER all relaxation, molecular dynamics, etc.).

  | Total energy of the DFT / Hartree-Fock s.c.f. calculation      :        -185391.287828820 eV
  | Final zero-broadening corrected energy (caution - metals only) :        -185391.287828820 eV
  | For reference only, the value of 1 Hartree used in FHI-aims is :             27.211384500 eV
  | For reference only, the overall average (free atom contribution
  | + realspace contribution) of the electrostatic potential after
  | s.c.f. convergence is                                          :            -15.307809317 eV

  Before relying on these values, please be sure to understand exactly which
  total energy value is referred to by a given number. Different objects may
  all carry the same name 'total energy'. Definitions:

  Total energy of the DFT / Hartree-Fock s.c.f. calculation:
  | Note that this energy does not include ANY quantities calculated after the
  | s.c.f. cycle, in particular not ANY RPA, MP2, etc. many-body perturbation terms.

  Final zero-broadening corrected energy:
  | For metallic systems only, a broadening of the occupation numbers at the Fermi
  | level can be extrapolated back to zero broadening by an electron-gas inspired
  | formula. For all systems that are not real metals, this value can be
  | meaningless and should be avoided.

------------------------------------------------------------------------------
  Methods described in the following list of references were used in this FHI-aims run.
  If you publish the results, please make sure to cite these reference if they apply.
  FHI-aims is an academic code, and for our developers (often, Ph.D. students
  and postdocs), scientific credit in the community is essential.
  Thank you for helping us!

  For any use of FHI-aims, please cite:

    Volker Blum, Ralf Gehrke, Felix Hanke, Paula Havu, Ville Havu,
    Xinguo Ren, Karsten Reuter, and Matthias Scheffler
    'Ab initio molecular simulations with numeric atom-centered orbitals'
    Computer Physics Communications 180, 2175-2196 (2009)
    http://dx.doi.org/10.1016/j.cpc.2009.06.022


  The provided symmetry information was generated with SPGlib:

    Atsushi Togo, Yusuke Seto, Dimitar Pashov
    SPGlib 1.7.3 obtained from http://spglib.sourceforge.net
    Copyright (C) 2008 Atsushi Togo


 DFT+U infrastructure was used in your run
 please cite:

 Matthias Kick, Karsten Reuter and Harald Oberhofer,
 Intricacies Of DFT+U, not only in a Numeric Atom Centered Orbital Framework

 Journal of Chemical Theory and Computation
 https://


  The ELSI infrastructure was used in your run to solve the Kohn-Sham electronic structure.
  Please check out http://elsi-interchange.org to learn more.
  If scalability is important for your project, please acknowledge ELSI by citing:

    V. W-z. Yu, F. Corsetti, A. Garcia, W. P. Huhn, M. Jacquelin, W. Jia,
    B. Lange, L. Lin, J. Lu, W. Mi, A. Seifitokaldani, A. Vazquez-Mayagoitia,
    C. Yang, H. Yang, and V. Blum
    'ELSI: A unified software interface for Kohn-Sham electronic structure solvers'
    Computer Physics Communications 222, 267-285 (2018).
    http://dx.doi.org/10.1016/j.cpc.2017.09.007


  For the real-space grid partitioning and parallelization used in this calculation, please cite:

    Ville Havu, Volker Blum, Paula Havu, and Matthias Scheffler,
    'Efficient O(N) integration for all-electron electronic structure calculation'
    'using numerically tabulated basis functions'
    Journal of Computational Physics 228, 8367-8379 (2009).
    http://dx.doi.org/10.1016/j.jcp.2009.08.008

  Of course, there are many other important community references, e.g., those cited in the
  above references. Our list is limited to references that describe implementations in the
  FHI-aims code. The reason is purely practical (length of this list) - please credit others as well.

 * A warning was issued further up regarding the CPU load.
   Some CPUs do not participate in the eigenvalue solution.
   In corner cases, this may be the correct behavior. Otherwise,
   consider using a scalapack/elpa version of the code for a parallel treatment.

   One or more s.c.f. cycles took more than 50 s.c.f. iterations.
   It might be worth adjusting your convergence settings. For example,
   metals need a larger broadening and a smaller "charge_mix_param" value than semiconductors.

------------------------------------------------------------
          Leaving FHI-aims.
          Date     :  20240812, Time     :  212129.154

          Computational steps:
          | Number of self-consistency cycles          :          119
          | Number of SCF (re)initializations          :            1
          | Number of relaxation steps                 :            0

          Detailed time accounting                     :  max(cpu_time)    wall_clock(cpu1)
          | Total time                                 :       41.333 s          42.576 s
          | Preparation time                           :        0.465 s           0.467 s
          | Boundary condition initalization           :        0.105 s           0.104 s
          | Grid partitioning                          :        0.029 s           0.029 s
          | Preloading free-atom quantities on grid    :        0.038 s           0.047 s
          | Free-atom superposition energy             :        0.003 s           0.003 s
          | Total time for integrations                :       12.857 s          12.892 s
          | Total time for solution of K.-S. equations :        1.816 s           1.815 s
          | Total time for EV reorthonormalization     :        0.000 s           0.000 s
          | Total time for density & force components  :       15.960 s          16.006 s
          | Total time for mixing & preconditioning    :        4.643 s           3.795 s
          | Total time for Hartree multipole update    :        0.135 s           0.172 s
          | Total time for Hartree multipole sum       :        4.412 s           4.434 s
          | Total time for total energy evaluation     :        0.404 s           0.259 s
          | Total time NSC force correction            :        0.063 s           0.063 s
          | Total time for scaled ZORA corrections     :        0.000 s           0.000 s

          Partial memory accounting:
          | Residual value for overall tracked memory usage across tasks:     0.000000 MB (should be 0.000000 MB)
          | Peak values for overall tracked memory usage:
          |   Minimum:       26.293 MB (on task   4 after allocating d_wave)
          |   Maximum:       33.153 MB (on task  72 after allocating d_wave)
          |   Average:       29.134 MB
          | Largest tracked array allocation:
          |   Minimum:        4.715 MB (hessian_basis_wave on task   4)
          |   Maximum:        7.119 MB (hamiltonian_shell on task  72)
          |   Average:        5.531 MB
          Note:  These values currently only include a subset of arrays which are explicitly tracked.
          The "true" memory usage will be greater.

          Have a nice day.
------------------------------------------------------------
