------------------------------------------------------------
          Invoking FHI-aims ...

          When using FHI-aims, please cite the following reference:

            Volker Blum, Ralf Gehrke, Felix Hanke, Paula Havu,
            Ville Havu, Xinguo Ren, Karsten Reuter, and Matthias Scheffler,
            'Ab Initio Molecular Simulations with Numeric Atom-Centered Orbitals',
            Computer Physics Communications 180, 2175-2196 (2009)

          In addition, many other developments in FHI-aims are likely important for
          your particular application. A partial list of references is given at the end of
          this file. Thank you for giving credit to the authors of these developments.

          For any questions about FHI-aims, please visit our slack channel at

            https://fhi-aims.slack.com

          and our main development and support site at

            https://aims-git.rz-berlin.mpg.de .

          The latter site, in particular, has a wiki to collect information, as well
          as an issue tracker to log discussions, suggest improvements, and report issues
          or bugs. https://aims-git.rz-berlin.mpg.de is also the main development site
          of the project and all new and updated code versions can be obtained there.
          Please send an email to aims-coordinators@fhi-berlin.mpg.de and we will add
          you to these sites. They are for you and everyone is welcome there.

------------------------------------------------------------



  Date     :  20240806, Time     :  102230.377
  Time zero on CPU 1             :   0.662820000000000E-01  s.
  Internal wall clock time zero  :           492171750.377  s.

  FHI-aims created a unique identifier for this run for later identification
  aims_uuid : F47E9658-08BD-4670-A8FD-0389C027F214

  Build configuration of the current instance of FHI-aims
  -------------------------------------------------------
  FHI-aims version      : 210618
  Commit number         : f9e1e7592
  CMake host system     : Linux-3.10.0-1127.13.1.el7.x86_64
  CMake version         : 3.17.3
  Fortran compiler      : /apps/compilers/intel/2018.2/compilers_and_libraries_2018/linux/mpi/intel64/bin/mpif90 (Intel) version 18.0.2.20180210
  Fortran compiler flags: -O3 -ip -fp-model precise
  C compiler            : /apps/compilers/intel/2018.2/compilers_and_libraries_2018/linux/bin/intel64/icc (Intel) version 18.0.2.20180210
  C compiler flags      : -O3 -ip -fp-model precise -std=gnu99
  ELPA2 kernel          : AVX2
  Using MPI
  Using ScaLAPACK
  Using LibXC
  Using i-PI
  Using RLSY
  Linking against: /apps/compilers/intel/2018.2/compilers_and_libraries_2018/linux/mkl/lib/intel64/libmkl_intel_lp64.so
                   /apps/compilers/intel/2018.2/compilers_and_libraries_2018/linux/mkl/lib/intel64/libmkl_intel_thread.so
                   /apps/compilers/intel/2018.2/compilers_and_libraries_2018/linux/mkl/lib/intel64/libmkl_core.so
                   /apps/compilers/intel/2018.2/compilers_and_libraries_2018/linux/mkl/lib/intel64/libmkl_blacs_intelmpi_lp64.so
                   /apps/compilers/intel/2018.2/compilers_and_libraries_2018/linux/mkl/lib/intel64/libmkl_scalapack_lp64.so
                   /usr/lib64/libpthread.so

  Using       40 parallel tasks.
  Task        0 on host ccs0136 reporting.
  Task        1 on host ccs0136 reporting.
  Task        2 on host ccs0136 reporting.
  Task        3 on host ccs0136 reporting.
  Task        4 on host ccs0136 reporting.
  Task        5 on host ccs0136 reporting.
  Task        6 on host ccs0136 reporting.
  Task        7 on host ccs0136 reporting.
  Task        8 on host ccs0136 reporting.
  Task        9 on host ccs0136 reporting.
  Task       10 on host ccs0136 reporting.
  Task       11 on host ccs0136 reporting.
  Task       12 on host ccs0136 reporting.
  Task       13 on host ccs0136 reporting.
  Task       14 on host ccs0136 reporting.
  Task       15 on host ccs0136 reporting.
  Task       16 on host ccs0136 reporting.
  Task       17 on host ccs0136 reporting.
  Task       18 on host ccs0136 reporting.
  Task       19 on host ccs0136 reporting.
  Task       20 on host ccs0136 reporting.
  Task       21 on host ccs0136 reporting.
  Task       22 on host ccs0136 reporting.
  Task       23 on host ccs0136 reporting.
  Task       24 on host ccs0136 reporting.
  Task       25 on host ccs0136 reporting.
  Task       26 on host ccs0136 reporting.
  Task       27 on host ccs0136 reporting.
  Task       28 on host ccs0136 reporting.
  Task       29 on host ccs0136 reporting.
  Task       30 on host ccs0136 reporting.
  Task       31 on host ccs0136 reporting.
  Task       32 on host ccs0136 reporting.
  Task       33 on host ccs0136 reporting.
  Task       34 on host ccs0136 reporting.
  Task       35 on host ccs0136 reporting.
  Task       36 on host ccs0136 reporting.
  Task       37 on host ccs0136 reporting.
  Task       38 on host ccs0136 reporting.
  Task       39 on host ccs0136 reporting.

  Performing system and environment tests:
  *** Environment variable OMP_NUM_THREADS is not set
  *** For performance reasons you might want to set it to 1
  | Checking for ScaLAPACK...
  | Testing pdtran()...
  | All pdtran() tests passed.

  Obtaining array dimensions for all initial allocations:
  
  -----------------------------------------------------------------------
  Parsing control.in (first pass over file, find array dimensions only).
  The contents of control.in will be repeated verbatim below
  unless switched off by setting 'verbatim_writeout .false.' .
  in the first line of control.in .
  -----------------------------------------------------------------------
  
  #===============================================================================
  # FHI-aims file: ./control.in
  # Created using the Atomic Simulation Environment (ASE)
  # Wed Nov  9 14:53:37 2022
  #===============================================================================
  spin                               none
  relativistic                       atomic_zora scalar
  compute_forces                     .true.
  override_warning_libxc             true
  xc                                 libxc MGGA_X_MBEEF+GGA_C_PBE_SOL
  k_grid                             10 10 4
  occupation_type                    gaussian 0.1
  plus_u_petukhov_mixing             1
  plus_u_use_hydros                  True
  plus_u_matrix_control              True
  sc_accuracy_etot                   1e-06
  sc_accuracy_eev                    0.001
  sc_accuracy_rho                    1e-06
  sc_accuracy_forces                 0.0001
  relax_geometry                     bfgs 0.01
  #===============================================================================
  
  ################################################################################
  #
  #  FHI-aims code project
  #  VB, Fritz-Haber Institut, 2009
  #
  #  Suggested "light" defaults for Ti atom (to be pasted into control.in file)
  #  Be sure to double-check any results obtained with these settings for post-processing,
  #  e.g., with the "tight" defaults and larger basis sets.
  #
  ################################################################################
    species        Ti
  #     global species definitions
      nucleus             22
      mass                47.867
  #
      l_hartree           4
  #
      cut_pot             3.5          1.5  1.0
      basis_dep_cutoff    1e-4
  #
      radial_base         48 5.0
      radial_multiplier   1
      angular_grids       specified
        division   0.5171   50
        division   0.9824  110
        division   1.2917  194
        division   1.4940  302
  #      division   1.6934  434
  #      division   1.8425  590
  #      division   2.1901  770
  #      division   2.2896  974
  #      division   2.8244 1202
  #      outer_grid  974
        outer_grid  302
  ################################################################################
  #
  #  Definition of "minimal" basis
  #
  ################################################################################
  #     valence basis states
      valence      4  s   2.
      valence      3  p   6.
      valence      3  d   2.
  #     ion occupancy
      ion_occ      4  s   1.
      ion_occ      3  p   6.
      ion_occ      3  d   1.
  ################################################################################
  #
  #  Suggested additional basis functions. For production calculations,
  #  uncomment them one after another (the most important basis functions are
  #  listed first).
  #
  #  Constructed for dimers: 1.6 A, 1.85 A, 2.5 A, 3.25 A, 4.25 A
  #
  ################################################################################
  #  "First tier" - improvements: -396.25 meV to -19.41 meV
       hydro 4 f 8
       hydro 3 d 2.7
       ionic 4 p auto
  #     hydro 5 g 11.6
       ionic 4 s auto
  #  "Second tier" - improvements: -16.30 meV to -2.03 meV
  #     hydro 3 d 4.4
  #     hydro 6 h 16
  #     hydro 4 f 9.4
  #     hydro 4 p 4.5
  #     hydro 1 s 0.5
  #  "Third tier" - improvements: -6.28 meV to -0.37 meV
  #     hydro 4 d 6.4
  #     hydro 4 f 10
  #     hydro 5 g 12
  #     hydro 2 p 1.7
  #     hydro 6 h 16.4
  #     hydro 4 s 3.8
  #  Further basis functions: -0.45 meV and smaller improvements
  #     hydro 3 d 8.8
  #     hydro 5 p 18
  #     hydro 4 f 22.4
  #     hydro 5 f 7.2  # -0.16 meV
  #     hydro 3 d 2.1  # -0.11 meV
  #     hydro 5 g 7.4  # -0.09 meV
  plus_u 3 d 1.837
  hubbard_coefficient 0.796 -0.6 0 0
  ################################################################################
  #
  #  FHI-aims code project
  #  VB, Fritz-Haber Institut, 2009
  #
  #  Suggested "light" defaults for O atom (to be pasted into control.in file)
  #  Be sure to double-check any results obtained with these settings for post-processing,
  #  e.g., with the "tight" defaults and larger basis sets.
  #
  ################################################################################
    species        O
  #     global species definitions
      nucleus             8
      mass                15.9994
  #
      l_hartree           4
  #
      cut_pot             3.5  1.5  1.0
      basis_dep_cutoff    1e-4
  #
      radial_base         36 5.0
      radial_multiplier   1
       angular_grids specified
        division   0.2659   50
        division   0.4451  110
        division   0.6052  194
        division   0.7543  302
  #      division   0.8014  434
  #      division   0.8507  590
  #      division   0.8762  770
  #      division   0.9023  974
  #      division   1.2339 1202
  #      outer_grid 974
        outer_grid 302
  ################################################################################
  #
  #  Definition of "minimal" basis
  #
  ################################################################################
  #     valence basis states
      valence      2  s   2.
      valence      2  p   4.
  #     ion occupancy
      ion_occ      2  s   1.
      ion_occ      2  p   3.
  ################################################################################
  #
  #  Suggested additional basis functions. For production calculations,
  #  uncomment them one after another (the most important basis functions are
  #  listed first).
  #
  #  Constructed for dimers: 1.0 A, 1.208 A, 1.5 A, 2.0 A, 3.0 A
  #
  ################################################################################
  #  "First tier" - improvements: -699.05 meV to -159.38 meV
       hydro 2 p 1.8
       hydro 3 d 7.6
       hydro 3 s 6.4
  #  "Second tier" - improvements: -49.91 meV to -5.39 meV
  #     hydro 4 f 11.6
  #     hydro 3 p 6.2
  #     hydro 3 d 5.6
  #     hydro 5 g 17.6
  #     hydro 1 s 0.75
  #  "Third tier" - improvements: -2.83 meV to -0.50 meV
  #     ionic 2 p auto
  #     hydro 4 f 10.8
  #     hydro 4 d 4.7
  #     hydro 2 s 6.8
  #  "Fourth tier" - improvements: -0.40 meV to -0.12 meV
  #     hydro 3 p 5
  #     hydro 3 s 3.3
  #     hydro 5 g 15.6
  #     hydro 4 f 17.6
  #     hydro 4 d 14
  # Further basis functions - -0.08 meV and below
  #     hydro 3 s 2.1
  #     hydro 4 d 11.6
  #     hydro 3 p 16
  #     hydro 2 s 17.2
  plus_u 2 p 0
  hubbard_coefficient 1 0 0 0
  
  -----------------------------------------------------------------------
  Completed first pass over input file control.in .
  -----------------------------------------------------------------------
  
  
  -----------------------------------------------------------------------
  Parsing geometry.in (first pass over file, find array dimensions only).
  The contents of geometry.in will be repeated verbatim below
  unless switched off by setting 'verbatim_writeout .false.' .
  in the first line of geometry.in .
  -----------------------------------------------------------------------
  
  #=======================================================
  # FHI-aims file: ./geometry.in
  # Created using the Atomic Simulation Environment (ASE)
  # Thu Nov 10 21:45:23 2022
  #=======================================================
  lattice_vector 3.7850000000000001 0.0000000000000000 0.0000000000000000
  lattice_vector 0.0000000000000000 3.7850000000000001 0.0000000000000000
  lattice_vector 0.0000000000000000 0.0000000000000000 9.5132999999999992
  atom_frac 0.5000000023302901 0.7500000016604608 0.8749995807290242 Ti
  atom_frac -0.0000000022548463 0.7499999994999336 0.6250004195409619 Ti
  atom_frac 0.4999999958327849 0.2499999994046751 0.1250004194295698 Ti
  atom_frac 0.0000000036755248 0.2499999998022054 0.3749995801732773 Ti
  atom_frac 0.5000000005098725 0.7500000001987241 0.0816797125851873 O
  atom_frac 0.0000000000754000 0.7500000004072761 0.8316789974359341 O
  atom_frac 0.4999999987372932 0.2500000003658404 0.9183202873972862 O
  atom_frac -0.0000000003002182 0.2500000005333001 0.1683210025952525 O
  atom_frac 0.0000000010224541 0.2499999997202168 0.5816797126412107 O
  atom_frac 0.5000000004323299 0.2499999991074887 0.3316789974021142 O
  atom_frac 0.0000000000075240 0.7499999997916506 0.4183202874422152 O
  atom_frac 0.4999999999315905 0.7499999995082276 0.6683210026279671 O
  
  -----------------------------------------------------------------------
  Completed first pass over input file geometry.in .
  -----------------------------------------------------------------------
  

  Basic array size parameters:
  | Number of species                 :        2
  | Number of atoms                   :       12
  | Number of lattice vectors         :        3
  | Max. basis fn. angular momentum   :        3
  | Max. atomic/ionic basis occupied n:        4
  | Max. number of basis fn. types    :        3
  | Max. radial fns per species/type  :        7
  | Max. logarithmic grid size        :     1383
  | Max. radial integration grid size :       48
  | Max. angular integration grid size:      302
  | Max. angular grid division number :        8
  | Radial grid for Hartree potential :     1383
  | Number of spin channels           :        1
  | Max. number of (n,l) shells per species with '+U' treatment:        1

------------------------------------------------------------
          Reading file control.in.
------------------------------------------------------------
  Spin treatment: No spin polarisation.
  Scalar relativistic treatment of kinetic energy: on-site free-atom approximation to ZORA.
  Forces will be computed.
  XC: Using LibXC. Please refer to LibXC output for further details.
  Using libxc - Initializing
  Libxc version: 4.3.4


  ** PLEASE ** be careful using LibXC. Whilst most of the LDA, GGA and MGGA functionals,
  and hybrid variations therein, should be stable (though we always recommend testing!),
  there are several fancy functionals with e.g. range-separation, like HSE03/HSE06/LC-PBEh,
  and also MGGA functionals that depend on the laplacian of the density, like BR89,
  that are not fully implemented due to the infrastrucutre for these functionals being incomplete or non-generic.
  If you want to use these functionals please contact the development team and we will work on them with you!

  You have selected libxc functional MGGA_X_MBEEF (249)
    - Description: mBEEF exchange
    - Type: MGGA(Exchange)
    - Reference to Literature:
      [1] J. Wellendorff, K. T. Lundgaard, K. W. Jacobsen, and T. Bligaard, J. Chem. Phys. 140, 144107 (2014)

  You have selected libxc functional GGA_C_PBE_SOL (133)
    - Description: Perdew, Burke & Ernzerhof SOL
    - Type: GGA(Correlation)
    - Reference to Literature:
      [1] J. P. Perdew, A. Ruzsinszky, G. I. Csonka, O. A. Vydrov, G. E. Scuseria, L. A. Constantin, X. Zhou, and K. Burke, Phys.

  Switching on meta-ggas
  Found k-point grid:        10        10         4
  Occupation type: Gaussian broadening, width =   0.100000E+00 eV.
  Fixing petukhov mixing factor to   1.000000000000
  hydrogenic basis funktions also used for DFT+U reference states
  Convergence accuracy of total energy:  0.1000E-05
  Convergence accuracy of sum of eigenvalues:  0.1000E-02
  Convergence accuracy of self-consistent charge density:  0.1000E-05
  Convergence accuracy of forces:  0.1000E-03
  Geometry relaxation: Modified BFGS - TRM (trust radius method) for lattice optimization.
  Convergence accuracy for geometry relaxation: Maximum force <   0.100000E-01 eV/A.
 
  Reading configuration options for species Ti                  .
  | Found nuclear charge :  22.0000
  | Found atomic mass :    47.8670000000000      amu
  | Found l_max for Hartree potential  :   4
  | Found cutoff potl. onset [A], width [A], scale factor :    3.50000    1.50000    1.00000
  | Threshold for basis-dependent cutoff potential is   0.100000E-03
  | Found data for basic radial integration grid :    48 points, outermost radius =    5.000 A
  | Found multiplier for basic radial grid :   1
  | Found angular grid specification: user-specified.
  | Specified grid contains     5 separate shells.
  | Check grid settings after all constraints further below.
  | Found free-atom valence shell :  4 s   2.000
  | Found free-atom valence shell :  3 p   6.000
  | Found free-atom valence shell :  3 d   2.000
  | Found free-ion valence shell :  4 s   1.000
  | Found free-ion valence shell :  3 p   6.000
  | Found free-ion valence shell :  3 d   1.000
  | Found hydrogenic basis function :  4 f   8.000
  | Found hydrogenic basis function :  3 d   2.700
  | Found ionic basis function :  4 p , default cutoff radius.
  | Found ionic basis function :  4 s , default cutoff radius.
  | Found request for '+U' treatment for  3 d shell, U =     1.837000 eV.
  | Found coefficents for linear combination of hubbard projectors 
  Species Ti                  : Missing cutoff potential type.
  Defaulting to exp(1/x)/(1-x)^2 type cutoff potential.
  Species Ti: No 'logarithmic' tag. Using default grid for free atom:
  | Default logarithmic grid data [bohr] : 0.1000E-03 0.1000E+03 0.1012E+01
  | Will include ionic basis functions of  2.0-fold positive Ti                   ion.
  Species Ti: On-site basis accuracy parameter (for Gram-Schmidt orthonormalisation) not specified.
  Using default value basis_acc =  0.1000000E-03.
  Species Ti                  : Using default innermost maximum threshold i_radial=  2 for radial functions.
  Species Ti                  : Default cutoff onset for free atom density etc. : 0.35000000E+01 AA.
  Species Ti                  : Basic radial grid will be enhanced according to radial_multiplier =   1, to contain    48 grid points.
 
  Reading configuration options for species O                   .
  | Found nuclear charge :   8.0000
  | Found atomic mass :    15.9994000000000      amu
  | Found l_max for Hartree potential  :   4
  | Found cutoff potl. onset [A], width [A], scale factor :    3.50000    1.50000    1.00000
  | Threshold for basis-dependent cutoff potential is   0.100000E-03
  | Found data for basic radial integration grid :    36 points, outermost radius =    5.000 A
  | Found multiplier for basic radial grid :   1
  | Found angular grid specification: user-specified.
  | Specified grid contains     5 separate shells.
  | Check grid settings after all constraints further below.
  | Found free-atom valence shell :  2 s   2.000
  | Found free-atom valence shell :  2 p   4.000
  | Found free-ion valence shell :  2 s   1.000
  | Found free-ion valence shell :  2 p   3.000
  | Found hydrogenic basis function :  2 p   1.800
  | Found hydrogenic basis function :  3 d   7.600
  | Found hydrogenic basis function :  3 s   6.400
  | Found request for '+U' treatment for  2 p shell, U =     0.000000 eV.
  | Found coefficents for linear combination of hubbard projectors 
  Species O                   : Missing cutoff potential type.
  Defaulting to exp(1/x)/(1-x)^2 type cutoff potential.
  Species O : No 'logarithmic' tag. Using default grid for free atom:
  | Default logarithmic grid data [bohr] : 0.1000E-03 0.1000E+03 0.1012E+01
  Species O : On-site basis accuracy parameter (for Gram-Schmidt orthonormalisation) not specified.
  Using default value basis_acc =  0.1000000E-03.
  Species O                   : Using default innermost maximum threshold i_radial=  2 for radial functions.
  Species O                   : Default cutoff onset for free atom density etc. : 0.35000000E+01 AA.
  Species O                   : Basic radial grid will be enhanced according to radial_multiplier =   1, to contain    36 grid points.
 
  Finished reading input file 'control.in'.
 
------------------------------------------------------------


------------------------------------------------------------
          Reading geometry description geometry.in.
------------------------------------------------------------
  | The smallest distance between any two atoms is         1.93685325 AA.
  | The first atom of this pair is atom number                      3 .
  | The second atom of this pair is atom number                     8 .
  | Wigner-Seitz cell of the first atom image           0     0     0 .
  | (The Wigner-Seitz cell of the second atom is 0 0 0  by definition.)

  Symmetry information by spglib:
  | Precision set to  0.1E-04
  | Number of Operations  : 16
  | Space group           : 74
  | International         : Imma     U
  | Schoenflies           : D2h^28
  Input structure read successfully.
  The structure contains       12 atoms,  and a total of        152.000 electrons.

  Input geometry:
  | Unit cell:
  |        3.78500000        0.00000000        0.00000000
  |        0.00000000        3.78500000        0.00000000
  |        0.00000000        0.00000000        9.51330000
  | Atomic structure:
  |       Atom                x [A]            y [A]            z [A]
  |    1: Species Ti            1.89250001        2.83875001        8.32413351
  |    2: Species Ti           -0.00000001        2.83875000        5.94581649
  |    3: Species Ti            1.89249998        0.94625000        1.18916649
  |    4: Species Ti            0.00000001        0.94625000        3.56748351
  |    5: Species O             1.89250000        2.83875000        0.77704361
  |    6: Species O             0.00000000        2.83875000        7.91201181
  |    7: Species O             1.89250000        0.94625000        8.73625639
  |    8: Species O            -0.00000000        0.94625000        1.60128819
  |    9: Species O             0.00000000        0.94625000        5.53369361
  |   10: Species O             1.89250000        0.94625000        3.15536181
  |   11: Species O             0.00000000        2.83875000        3.97960639
  |   12: Species O             1.89250000        2.83875000        6.35793819

  Lattice parameters for 3D lattice (in Angstroms) :     3.785000    3.785000    9.513300
  Angle(s) between unit vectors (in degrees)       :    90.000000   90.000000   90.000000


  Quantities derived from the lattice vectors:
  | Reciprocal lattice vector 1:  1.660023  0.000000  0.000000
  | Reciprocal lattice vector 2:  0.000000  1.660023  0.000000
  | Reciprocal lattice vector 3:  0.000000  0.000000  0.660463
  | Unit cell volume                               :   0.136290E+03  A^3

  Fractional coordinates:
                         L1                L2                L3
       atom_frac         0.50000000        0.75000000        0.87499958  Ti
       atom_frac        -0.00000000        0.75000000        0.62500042  Ti
       atom_frac         0.50000000        0.25000000        0.12500042  Ti
       atom_frac         0.00000000        0.25000000        0.37499958  Ti
       atom_frac         0.50000000        0.75000000        0.08167971  O
       atom_frac         0.00000000        0.75000000        0.83167900  O
       atom_frac         0.50000000        0.25000000        0.91832029  O
       atom_frac        -0.00000000        0.25000000        0.16832100  O
       atom_frac         0.00000000        0.25000000        0.58167971  O
       atom_frac         0.50000000        0.25000000        0.33167900  O
       atom_frac         0.00000000        0.75000000        0.41832029  O
       atom_frac         0.50000000        0.75000000        0.66832100  O

 
  Finished reading input file 'control.in'.
 

------------------------------------------------------------
          Reading geometry description geometry.in.
------------------------------------------------------------
 
  Consistency checks for stacksize environment parameter are next.
 
  | Maximum stacksize for task 0: unlimited
  | Maximum stacksize for task 1: unlimited
  | Maximum stacksize for task 2: unlimited
  | Maximum stacksize for task 3: unlimited
  | Maximum stacksize for task 4: unlimited
  | Maximum stacksize for task 5: unlimited
  | Maximum stacksize for task 6: unlimited
  | Maximum stacksize for task 7: unlimited
  | Maximum stacksize for task 8: unlimited
  | Maximum stacksize for task 9: unlimited
  | Maximum stacksize for task 10: unlimited
  | Maximum stacksize for task 11: unlimited
  | Maximum stacksize for task 12: unlimited
  | Maximum stacksize for task 13: unlimited
  | Maximum stacksize for task 14: unlimited
  | Maximum stacksize for task 15: unlimited
  | Maximum stacksize for task 16: unlimited
  | Maximum stacksize for task 17: unlimited
  | Maximum stacksize for task 18: unlimited
  | Maximum stacksize for task 19: unlimited
  | Maximum stacksize for task 20: unlimited
  | Maximum stacksize for task 21: unlimited
  | Maximum stacksize for task 22: unlimited
  | Maximum stacksize for task 23: unlimited
  | Maximum stacksize for task 24: unlimited
  | Maximum stacksize for task 25: unlimited
  | Maximum stacksize for task 26: unlimited
  | Maximum stacksize for task 27: unlimited
  | Maximum stacksize for task 28: unlimited
  | Maximum stacksize for task 29: unlimited
  | Maximum stacksize for task 30: unlimited
  | Maximum stacksize for task 31: unlimited
  | Maximum stacksize for task 32: unlimited
  | Maximum stacksize for task 33: unlimited
  | Maximum stacksize for task 34: unlimited
  | Maximum stacksize for task 35: unlimited
  | Maximum stacksize for task 36: unlimited
  | Maximum stacksize for task 37: unlimited
  | Maximum stacksize for task 38: unlimited
  | Maximum stacksize for task 39: unlimited
  | Current stacksize for task 0: unlimited
  | Current stacksize for task 1: unlimited
  | Current stacksize for task 2: unlimited
  | Current stacksize for task 3: unlimited
  | Current stacksize for task 4: unlimited
  | Current stacksize for task 5: unlimited
  | Current stacksize for task 6: unlimited
  | Current stacksize for task 7: unlimited
  | Current stacksize for task 8: unlimited
  | Current stacksize for task 9: unlimited
  | Current stacksize for task 10: unlimited
  | Current stacksize for task 11: unlimited
  | Current stacksize for task 12: unlimited
  | Current stacksize for task 13: unlimited
  | Current stacksize for task 14: unlimited
  | Current stacksize for task 15: unlimited
  | Current stacksize for task 16: unlimited
  | Current stacksize for task 17: unlimited
  | Current stacksize for task 18: unlimited
  | Current stacksize for task 19: unlimited
  | Current stacksize for task 20: unlimited
  | Current stacksize for task 21: unlimited
  | Current stacksize for task 22: unlimited
  | Current stacksize for task 23: unlimited
  | Current stacksize for task 24: unlimited
  | Current stacksize for task 25: unlimited
  | Current stacksize for task 26: unlimited
  | Current stacksize for task 27: unlimited
  | Current stacksize for task 28: unlimited
  | Current stacksize for task 29: unlimited
  | Current stacksize for task 30: unlimited
  | Current stacksize for task 31: unlimited
  | Current stacksize for task 32: unlimited
  | Current stacksize for task 33: unlimited
  | Current stacksize for task 34: unlimited
  | Current stacksize for task 35: unlimited
  | Current stacksize for task 36: unlimited
  | Current stacksize for task 37: unlimited
  | Current stacksize for task 38: unlimited
  | Current stacksize for task 39: unlimited
 
  Consistency checks for the contents of control.in are next.
 
  MPI_IN_PLACE appears to work with this MPI implementation.
  | Keeping use_mpi_in_place .true. (see manual).
  Target number of points in a grid batch is not set. Defaulting to  100
  Method for grid partitioning is not set. Defaulting to parallel hash+maxmin partitioning.
  Batch size limit is not set. Defaulting to    200
  By default, will store active basis functions for each batch.
  If in need of memory, prune_basis_once .false. can be used to disable this option.
  communication_type for Hartree potential was not specified.
  Defaulting to calc_hartree .
  Defaulting to Pulay charge density mixer.
  Pulay mixer: Number of relevant iterations not set.
  Defaulting to    8 iterations.
  Pulay mixer: Number of initial linear mixing iterations not set.
  Defaulting to    0 iterations.
  Work space size for distributed Hartree potential not set.
  Defaulting to   0.200000E+03 MB.
  Mixing parameter for charge density mixing has not been set.
  Using default: charge_mix_param =     0.0500.
  The mixing parameter will be adjusted in iteration number     2 of the first full s.c.f. cycle only.
  Algorithm-dependent basis array size parameters:
  | n_max_pulay                         :        8
  Maximum number of self-consistency iterations not provided.
  Presetting  1000 iterations.
  Presetting      1001 iterations before the initial mixing cycle
  is restarted anyway using the sc_init_iter criterion / keyword.
  Presetting a factor      1.000 between actual scf density residual
  and density convergence criterion sc_accuracy_rho below which sc_init_iter
  takes no effect.
  No maximum number of relaxation steps, defaulting to     1000
  Default initial Hessian is Lindh matrix (thres = 15.00) plus  0.200000E+01 eV/A^2 times unity.
  No maximum energy tolerance for TRM/BFGS moves, defaulting to   0.100000E-02
  Maximum energy tolerance by which TRM/BFGS trajectory may increase over multiple steps:   0.300000E-02
  No harmonic length scale. Defaulting to   0.250000E-01 A.
  No trust radius initializer. Defaulting to   0.200000E+00 A.
  Forces evaluation will include force correction term due to incomplete self-consistency (default).
  Handling of forces: Unphysical translation and rotation will be removed from forces.
  No accuracy limit for integral partition fn. given. Defaulting to  0.1000E-14.
  No threshold value for u(r) in integrations given. Defaulting to  0.1000E-05.
  No accuracy for occupation numbers given. Defaulting to  0.1000E-12.
  No threshold value for occupation numbers given. Defaulting to  0.0000E+00.
  No accuracy for fermi level given. Defaulting to  0.1000E-19.
  Maximum # of iterations to find E_F not set. Defaulting to  200.
  Preferred method for the eigenvalue solver ('KS_method') not specified in 'control.in'.
  Defaulting to serial version, LAPACK (via ELSI), since more k-points than CPUs available.
  Will not use alltoall communication since running on < 1024 CPUs.
  Threshold for basis singularities not set.
  Default threshold for basis singularities:  0.1000E-04
  partition_type (choice of integration weights) for integrals was not specified.
  | Using a version of the partition function of Stratmann and coworkers ('stratmann_sparse').
  | At each grid point, the set of atoms used to build the partition table is smoothly restricted to
  | only those atoms whose free-atom density would be non-zero at that grid point.
  Partitioning for Hartree potential was not defined. Using partition_type for integrals.
  | Adjusted default value of keyword multip_moments_threshold to:       0.10000000E-11
  | This value may affect high angular momentum components of the Hartree potential in periodic systems.
  Angular momentum expansion for Kerker preconditioner not set explicitly.
  | Using default value of   0
  No explicit requirement for turning off preconditioner.
  | By default, it will be turned off when the charge convergence reaches
  | sc_accuracy_rho  =   0.100000E-05
  | sc_accuracy_eev  =   0.100000E-02
  | sc_accuracy_etot =   0.100000E-05
  No special mixing parameter while Kerker preconditioner is on.
  Using default: charge_mix_param =     0.0500.
  No q(lm)/r^(l+1) cutoff set for long-range Hartree potential.
  | Using default value of  0.100000E-09 .
  | Verify using the multipole_threshold keyword.
  Defaulting to new monopole extrapolation.
  Density update method: automatic selection selected.
  Using density matrix based charge density update.
 * Warning: DFT+U requires using density matrix based charge density update.
  Using density matrix based charge density update.
  Using packed matrix style: index .
  Geometry relaxation: A file "geometry.in.next_step" is written out by default after each step.
  | This file contains the geometry of the current relaxation step as well as
  | the current Hessian matrix needed to restart the relaxation algorithm.
  | If you do not want part or all of this information, use the keywords
  | "write_restart_geometry" or "hessian_to_restart_geometry" to switch the output off.
  Defaulting to use time-reversal symmetry for k-point grid.
  Charge integration errors on the 3D integration grid will be compensated
  by explicit normalization and distribution of residual charges.
  Use the "compensate_multipole_errors" flag to change this behaviour.
  Set 'collect_eigenvectors' to be '.true.' for all serial calculations. This is mandatory.
  Set 'collect_eigenvectors' to be '.true.' for KS_method lapack_fast and serial.
 
  Consistency checks for the contents of geometry.in are next.
 

  Range separation radius for Ewald summation (hartree_convergence_parameter):      3.13312180 bohr.
  Number of empty states per atom not set in control.in - providing a guess from actual geometry.
  | Total number of empty states used during s.c.f. cycle:       46
  If you use a very high smearing, use empty_states (per atom!) in control.in to increase this value.

  Structure-dependent array size parameters: 
  | Maximum number of distinct radial functions  :       17
  | Maximum number of basis functions            :      236
  | Number of Kohn-Sham states (occupied + empty):      122
------------------------------------------------------------

------------------------------------------------------------
          Preparing all fixed parts of the calculation.
------------------------------------------------------------
  Determining machine precision:
    2.225073858507201E-308
  Setting up grids for atomic and cluster calculations.

  Creating wave function, potential, and density for free atoms.

  Species: Ti

  List of occupied orbitals and eigenvalues:
    n    l              occ      energy [Ha]    energy [eV]
    1    0           2.0000      -179.482435     -4883.9656
    2    0           2.0000       -19.674169      -535.3614
    3    0           2.0000        -2.270443       -61.7819
    4    0           2.0000        -0.153527        -4.1777
    2    1           6.0000       -16.307552      -443.7511
    3    1           6.0000        -1.407668       -38.3046
    3    2           2.0000        -0.147710        -4.0194


  Species: O

  List of occupied orbitals and eigenvalues:
    n    l              occ      energy [Ha]    energy [eV]
    1    0           2.0000       -18.786109      -511.1960
    2    0           2.0000        -0.872635       -23.7456
    2    1           4.0000        -0.337687        -9.1889


  Adding cutoff potential to free-atom effective potential.
  Creating fixed part of basis set: Ionic, confined, hydrogenic.
 
  Ti                   ion:

  List of free ionic orbitals and eigenvalues:
    n    l      energy [Ha]    energy [eV]
    1    0      -180.346512     -4907.4783
    2    0       -20.558929      -559.4369
    3    0        -3.105104       -84.4942
    4    0        -0.707661       -19.2564
    2    1       -17.189957      -467.7625
    3    1        -2.231709       -60.7279
    3    2        -0.922254       -25.0958


  List of ionic basis orbitals and eigenvalues:
    n    l      energy [Ha]    energy [eV]    outer radius [A]
    4    1        -0.526225       -14.3193       4.592117
    4    0        -0.707344       -19.2478       4.536321

 
  Ti                   hydrogenic:
 
  List of hydrogenic basis orbitals: 
    n    l      effective z      eigenvalue [eV]  inner max. [A]     outer max. [A]     outer radius [A]   
    4    3         8.000000       -54.4222           1.059019           1.059019           4.267343
    3    2         2.700000       -10.7798           1.726925           1.726925           4.592117
 
 
  O                    hydrogenic:
 
  List of hydrogenic basis orbitals: 
    n    l      effective z      eigenvalue [eV]  inner max. [A]     outer max. [A]     outer radius [A]   
    2    1         1.800000       -10.9749           1.164242           1.164242           4.578029
    3    2         7.600000       -87.3180           0.624125           0.624125           3.251020
    3    0         6.400000       -61.9207           0.061167           1.081902           4.001998
 
  Creating atomic-like basis functions for current effective potential.

  Species Ti                  :

  List of atomic basis orbitals and eigenvalues:
    n    l      energy [Ha]    energy [eV]    outer radius [A]
    1    0      -179.482435     -4883.9656       0.490254
    2    0       -19.674169      -535.3614       1.491292
    3    0        -2.270443       -61.7819       4.014314
    4    0        -0.153527        -4.1777       4.592117
    2    1       -16.307552      -443.7511       1.585290
    3    1        -1.407668       -38.3046       4.267343
    3    2        -0.147710        -4.0194       4.536321


  Species O                   :

  List of atomic basis orbitals and eigenvalues:
    n    l      energy [Ha]    energy [eV]    outer radius [A]
    1    0       -18.786109      -511.1960       1.433179
    2    0        -0.872635       -23.7456       4.413171
    2    1        -0.337687        -9.1889       4.522403

  Assembling full basis from fixed parts.
 * Warning - Since '+U' treatment was requested,
 * the basis-dependent cutoff is turned off automatically.
  | Species Ti :   atomic orbital   1 s accepted.
  | Species Ti :   atomic orbital   2 s accepted.
  | Species Ti :   atomic orbital   3 s accepted.
  | Species Ti :   atomic orbital   4 s accepted.
  | Species Ti :    ionic orbital   4 s accepted.
  | Species Ti :   atomic orbital   2 p accepted.
  | Species Ti :   atomic orbital   3 p accepted.
  | Species Ti :    ionic orbital   4 p accepted.
  | Species Ti :   atomic orbital   3 d accepted.
  | Species Ti :    hydro orbital   3 d accepted.
  | Species Ti :    hydro orbital   4 f accepted.
 * Warning - Since '+U' treatment was requested,
 * the basis-dependent cutoff is turned off automatically.
  | Species O :   atomic orbital   1 s accepted.
  | Species O :   atomic orbital   2 s accepted.
  | Species O :    hydro orbital   3 s accepted.
  | Species O :   atomic orbital   2 p accepted.
  | Species O :    hydro orbital   2 p accepted.
  | Species O :    hydro orbital   3 d accepted.
 
  Basis size parameters after reduction:
  | Total number of radial functions:       17
  | Total number of basis functions :      236
 
  Per-task memory consumption for arrays in subroutine allocate_ext:
  |           6.025544MB.
  Testing on-site integration grid accuracy.
  |  Species  Function  <phi|h_atom|phi> (log., in eV)  <phi|h_atom|phi> (rad., in eV)
           1        1              -4883.9655584838              -4883.9621038685
           1        2               -535.3613797651               -535.3613465329
           1        3                -61.7819051437                -61.7819042958
           1        4                 -4.2003822752                 -4.2346685062 ***
           1        5                  7.2077759278                  6.9926101099 ***
           1        6               -443.7510567204               -443.7510565108
           1        7                -38.3045974414                -38.3045972667
           1        8                  0.2435515971                  0.2278546356
           1        9                 -4.0209566986                 -4.0233253492
           1       10                  6.1945918217                  6.1160653784 ***
           1       11                 27.5350749887                 27.5351945928
           2       12               -511.1960429777               -511.1959399133
           2       13                -23.7455964041                -23.7455972542
           2       14                 17.3746964700                 17.3748057881
           2       15                 -9.1890598667                 -9.1892026751
           2       16                  8.1915160719                  8.1720639763
           2       17                 45.8005976646                 45.8005620229
 * Note: Onsite integrals marked "***" above are less accurate than
 * onsite_accuracy_threshold =    0.03000 eV. Usually, this is harmless.
 * However, one integral did have a negative value. This integral could be important.
 * When in doubt, tighten the "radial" and/or "radial_multiplier" flags to check.

  Preparing densities etc. for the partition functions (integrals / Hartree potential).

  Preparations completed.
  max(cpu_time)          :      0.425 s.
  Wall clock time (cpu1) :      0.426 s.
------------------------------------------------------------

------------------------------------------------------------
          Begin self-consistency loop: Initialization.

          Date     :  20240806, Time     :  102230.927
------------------------------------------------------------

  Initializing index lists of integration centers etc. from given atomic structure:
  Mapping all atomic coordinates to central unit cell.

  Initializing the k-points
  Using symmetry for reducing the k-points
  | k-points reduced from:      400 to      204
  | Number of k-points                             :       204
  The eigenvectors in the calculations are COMPLEX.
  | K-points in task   0:         5
  | K-points in task   1:         6
  | K-points in task   2:         6
  | K-points in task   3:         6
  | K-points in task   4:         6
  | K-points in task   5:         5
  | K-points in task   6:         5
  | K-points in task   7:         5
  | K-points in task   8:         5
  | K-points in task   9:         5
  | K-points in task  10:         5
  | K-points in task  11:         5
  | K-points in task  12:         5
  | K-points in task  13:         5
  | K-points in task  14:         5
  | K-points in task  15:         5
  | K-points in task  16:         5
  | K-points in task  17:         5
  | K-points in task  18:         5
  | K-points in task  19:         5
  | K-points in task  20:         5
  | K-points in task  21:         5
  | K-points in task  22:         5
  | K-points in task  23:         5
  | K-points in task  24:         5
  | K-points in task  25:         5
  | K-points in task  26:         5
  | K-points in task  27:         5
  | K-points in task  28:         5
  | K-points in task  29:         5
  | K-points in task  30:         5
  | K-points in task  31:         5
  | K-points in task  32:         5
  | K-points in task  33:         5
  | K-points in task  34:         5
  | K-points in task  35:         5
  | K-points in task  36:         5
  | K-points in task  37:         5
  | K-points in task  38:         5
  | K-points in task  39:         5
  | Number of basis functions in the Hamiltonian integrals :      3634
  | Number of basis functions in a single unit cell        :       236
  | Number of centers in hartree potential         :      1358
  | Number of centers in hartree multipole         :       884
  | Number of centers in electron density summation:       632
  | Number of centers in basis integrals           :       684
  | Number of centers in integrals                 :       270
  | Number of centers in hamiltonian               :       634
  | Consuming        255 KiB for k_phase.
  | Number of super-cells (origin) [n_cells]                     :         405
  | Number of super-cells (after PM_index) [n_cells]             :          80
  | Number of super-cells in hamiltonian [n_cells_in_hamiltonian]:          80
  | Size of matrix packed + index [n_hamiltonian_matrix_size] :      507553

  Initializing relaxation algorithms.
  Finished initialization of distributed Hessian storage.
  | Global dimension:        36
  | BLACS block size:         1
  | Number of workers:       36

  | Estimated reciprocal-space cutoff momentum G_max:         3.01033910 bohr^-1 .
  | Reciprocal lattice points for long-range Hartree potential:     428
  Partitioning the integration grid into batches with parallel hashing+maxmin method.
  | Number of batches:      959
  | Maximal batch size:     112
  | Minimal batch size:      55
  | Average batch size:      79.933
  | Standard deviation of batch sizes:      16.573

  Integration load balanced across    40 MPI tasks.
  Work distribution over tasks is as follows:
  Task     0 has       1939 integration points.
  Task     1 has       1933 integration points.
  Task     2 has       1924 integration points.
  Task     3 has       1928 integration points.
  Task     4 has       1855 integration points.
  Task     5 has       1933 integration points.
  Task     6 has       1928 integration points.
  Task     7 has       1925 integration points.
  Task     8 has       1858 integration points.
  Task     9 has       1854 integration points.
  Task    10 has       1938 integration points.
  Task    11 has       1936 integration points.
  Task    12 has       1930 integration points.
  Task    13 has       1932 integration points.
  Task    14 has       1934 integration points.
  Task    15 has       1919 integration points.
  Task    16 has       1932 integration points.
  Task    17 has       1933 integration points.
  Task    18 has       1872 integration points.
  Task    19 has       1924 integration points.
  Task    20 has       1927 integration points.
  Task    21 has       1933 integration points.
  Task    22 has       1853 integration points.
  Task    23 has       1856 integration points.
  Task    24 has       1936 integration points.
  Task    25 has       1938 integration points.
  Task    26 has       1941 integration points.
  Task    27 has       1853 integration points.
  Task    28 has       1931 integration points.
  Task    29 has       1936 integration points.
  Task    30 has       1852 integration points.
  Task    31 has       1931 integration points.
  Task    32 has       1932 integration points.
  Task    33 has       1929 integration points.
  Task    34 has       1927 integration points.
  Task    35 has       1929 integration points.
  Task    36 has       1936 integration points.
  Task    37 has       1925 integration points.
  Task    38 has       1930 integration points.
  Task    39 has       1934 integration points.
  Initializing partition tables, free-atom densities, potentials, etc. across the integration grid (initialize_grid_storage).
  | initialize_grid_storage: Actual outermost partition radius vs. multipole_radius_free
  | (-- VB: in principle, multipole_radius_free should be larger, hence this output)
  | Species        1: Confinement radius =              4.999999999999999 AA, multipole_radius_free =              5.002391649902235 AA.
  | Species        1: outer_partition_radius set to              5.002391649902235 AA .
  | Species        2: Confinement radius =              4.999999999999999 AA, multipole_radius_free =              5.048384829883283 AA.
  | Species        2: outer_partition_radius set to              5.048384829883283 AA .
  | The sparse table of interatomic distances needs       1704.41 kbyte instead of      3742.85 kbyte of memory.
  | Net number of integration points:    76656
  | of which are non-zero points    :    62608
  | Numerical average free-atom electrostatic potential    :    -16.60218491 eV
  Renormalizing the initial density to the exact electron count on the 3D integration grid.
  | Initial density: Formal number of electrons (from input files) :     152.0000000000
  | Integrated number of electrons on 3D grid     :     152.0033301338
  | Charge integration error                      :       0.0033301338
  | Normalization factor for density and gradient :       0.9999780917
  Renormalizing the free-atom superposition density to the exact electron count on the 3D integration grid.
  | Formal number of electrons (from input files) :     152.0000000000
  | Integrated number of electrons on 3D grid     :     152.0033301338
  | Charge integration error                      :       0.0033301338
  | Normalization factor for density and gradient :       0.9999780917
  Obtaining max. number of non-zero basis functions in each batch (get_n_compute_maxes).
  | Maximal number of non-zero basis functions:      761 in task     0
  | Maximal number of non-zero basis functions:      809 in task     1
  | Maximal number of non-zero basis functions:      769 in task     2
  | Maximal number of non-zero basis functions:      805 in task     3
  | Maximal number of non-zero basis functions:      796 in task     4
  | Maximal number of non-zero basis functions:      788 in task     5
  | Maximal number of non-zero basis functions:      799 in task     6
  | Maximal number of non-zero basis functions:      767 in task     7
  | Maximal number of non-zero basis functions:      765 in task     8
  | Maximal number of non-zero basis functions:      768 in task     9
  | Maximal number of non-zero basis functions:      764 in task    10
  | Maximal number of non-zero basis functions:      796 in task    11
  | Maximal number of non-zero basis functions:      770 in task    12
  | Maximal number of non-zero basis functions:      768 in task    13
  | Maximal number of non-zero basis functions:      785 in task    14
  | Maximal number of non-zero basis functions:      758 in task    15
  | Maximal number of non-zero basis functions:      785 in task    16
  | Maximal number of non-zero basis functions:      795 in task    17
  | Maximal number of non-zero basis functions:      742 in task    18
  | Maximal number of non-zero basis functions:      767 in task    19
  | Maximal number of non-zero basis functions:      797 in task    20
  | Maximal number of non-zero basis functions:      772 in task    21
  | Maximal number of non-zero basis functions:      756 in task    22
  | Maximal number of non-zero basis functions:      788 in task    23
  | Maximal number of non-zero basis functions:      769 in task    24
  | Maximal number of non-zero basis functions:      768 in task    25
  | Maximal number of non-zero basis functions:      754 in task    26
  | Maximal number of non-zero basis functions:      765 in task    27
  | Maximal number of non-zero basis functions:      796 in task    28
  | Maximal number of non-zero basis functions:      759 in task    29
  | Maximal number of non-zero basis functions:      768 in task    30
  | Maximal number of non-zero basis functions:      766 in task    31
  | Maximal number of non-zero basis functions:      766 in task    32
  | Maximal number of non-zero basis functions:      796 in task    33
  | Maximal number of non-zero basis functions:      770 in task    34
  | Maximal number of non-zero basis functions:      785 in task    35
  | Maximal number of non-zero basis functions:      768 in task    36
  | Maximal number of non-zero basis functions:      762 in task    37
  | Maximal number of non-zero basis functions:      760 in task    38
  | Maximal number of non-zero basis functions:      788 in task    39
  Allocating        2.197 MB for KS_eigenvector_complex
  Integrating Hamiltonian matrix: batch-based integration.
  Time summed over all CPUs for integration: real work        9.104 s, elapsed        9.987 s
  Integrating overlap matrix.
  Time summed over all CPUs for integration: real work        5.926 s, elapsed        6.511 s
  Decreasing sparse matrix size:
  | Tolerance:  0.1000E-12
  Hamiltonian matrix
  | Array has   427129 nonzero elements out of   507553 elements
  | Sparsity factor is 0.158
  Overlap matrix
  | Array has   393368 nonzero elements out of   507553 elements
  | Sparsity factor is 0.225
  New size of hamiltonian matrix:      427854

  Updating Kohn-Sham eigenvalues and eigenvectors using ELSI and the (modified) LAPACK eigensolver.
  Singularity check in k-point 40, task 0 (analysis for other k-points/tasks may follow below):
  Overlap matrix is not singular
  | Lowest and highest eigenvalues :  0.1047E-02,  0.7226E+01
  Finished singularity check of overlap matrix
  | Time :     0.013 s
  Starting LAPACK eigensolver
  Finished Cholesky decomposition
  | Time :     0.002 s
  Finished transformation to standard eigenproblem
  | Time :     0.004 s
  Finished solving standard eigenproblem
  | Time :     0.009 s
  Finished back-transformation of eigenvectors
  | Time :     0.001 s

  Obtaining occupation numbers and chemical potential using ELSI.
  | Chemical potential (Fermi level):   -11.55329275 eV
  Writing Kohn-Sham eigenvalues.
  K-point:       1 at    0.000000    0.000000    0.000000 (in units of recip. lattice)

  State    Occupation    Eigenvalue [Ha]    Eigenvalue [eV]
      1       2.00000        -179.493836        -4884.27579
      2       2.00000        -179.493836        -4884.27579
      3       2.00000        -179.493836        -4884.27579
      4       2.00000        -179.493836        -4884.27579
      5       2.00000         -19.686797         -535.70500
      6       2.00000         -19.686797         -535.70500
      7       2.00000         -19.686797         -535.70500
      8       2.00000         -19.686797         -535.70500
      9       2.00000         -18.901112         -514.32542
     10       2.00000         -18.901112         -514.32542
     11       2.00000         -18.901112         -514.32541
     12       2.00000         -18.901112         -514.32541
     13       2.00000         -18.901110         -514.32537
     14       2.00000         -18.901110         -514.32537
     15       2.00000         -18.901110         -514.32537
     16       2.00000         -18.901110         -514.32537
     17       2.00000         -16.320064         -444.09153
     18       2.00000         -16.320064         -444.09153
     19       2.00000         -16.320064         -444.09153
     20       2.00000         -16.320064         -444.09153
     21       2.00000         -16.319910         -444.08735
     22       2.00000         -16.319910         -444.08735
     23       2.00000         -16.319910         -444.08735
     24       2.00000         -16.319910         -444.08735
     25       2.00000         -16.319910         -444.08735
     26       2.00000         -16.319910         -444.08735
     27       2.00000         -16.319910         -444.08735
     28       2.00000         -16.319910         -444.08735
     29       2.00000          -2.303210          -62.67354
     30       2.00000          -2.301673          -62.63171
     31       2.00000          -2.301673          -62.63171
     32       2.00000          -2.300112          -62.58924
     33       2.00000          -1.466733          -39.91184
     34       2.00000          -1.455821          -39.61491
     35       2.00000          -1.455821          -39.61489
     36       2.00000          -1.451402          -39.49467
     37       2.00000          -1.451402          -39.49466
     38       2.00000          -1.450209          -39.46220
     39       2.00000          -1.450209          -39.46219
     40       2.00000          -1.446423          -39.35916
     41       2.00000          -1.446422          -39.35916
     42       2.00000          -1.445202          -39.32594
     43       2.00000          -1.445202          -39.32594
     44       2.00000          -1.444100          -39.29597
     45       2.00000          -1.070771          -29.13715
     46       2.00000          -1.047907          -28.51501
     47       2.00000          -1.047906          -28.51497
     48       2.00000          -1.037806          -28.24013
     49       2.00000          -1.030796          -28.04938
     50       2.00000          -1.030794          -28.04934
     51       2.00000          -1.026933          -27.94426
     52       2.00000          -1.021271          -27.79020
     53       2.00000          -0.555627          -15.11939
     54       2.00000          -0.553548          -15.06281
     55       2.00000          -0.553546          -15.06275
     56       2.00000          -0.551318          -15.00213
     57       2.00000          -0.551316          -15.00206
     58       2.00000          -0.546265          -14.86463
     59       2.00000          -0.546264          -14.86461
     60       2.00000          -0.537060          -14.61416
     61       2.00000          -0.502353          -13.66972
     62       2.00000          -0.497234          -13.53043
     63       2.00000          -0.497233          -13.53039
     64       2.00000          -0.494834          -13.46512
     65       2.00000          -0.494832          -13.46506
     66       2.00000          -0.482806          -13.13781
     67       2.00000          -0.482805          -13.13778
     68       2.00000          -0.477068          -12.98167
     69       2.00000          -0.477067          -12.98167
     70       2.00000          -0.463705          -12.61804
     71       2.00000          -0.462582          -12.58750
     72       2.00000          -0.462582          -12.58750
     73       2.00000          -0.455249          -12.38795
     74       2.00000          -0.455248          -12.38792
     75       2.00000          -0.446535          -12.15083
     76       2.00000          -0.446534          -12.15081
     77       0.00000          -0.215758           -5.87108
     78       0.00000          -0.198036           -5.38883
     79       0.00000          -0.198035           -5.38881
     80       0.00000          -0.178378           -4.85390
     81       0.00000          -0.166557           -4.53224
     82       0.00000          -0.166556           -4.53222
     83       0.00000          -0.156268           -4.25228
     84       0.00000          -0.156268           -4.25227
     85       0.00000          -0.151987           -4.13579
     86       0.00000          -0.151987           -4.13578
     87       0.00000          -0.142332           -3.87305
     88       0.00000          -0.142332           -3.87304
     89       0.00000          -0.111437           -3.03237
     90       0.00000          -0.108675           -2.95720
     91       0.00000          -0.108675           -2.95719
     92       0.00000          -0.105702           -2.87628
     93       0.00000          -0.093627           -2.54773
     94       0.00000          -0.088001           -2.39463
     95       0.00000          -0.085994           -2.34002
     96       0.00000          -0.085994           -2.34001
     97       0.00000          -0.061213           -1.66570
     98       0.00000          -0.020525           -0.55852
     99       0.00000          -0.020524           -0.55849
    100       0.00000           0.090862            2.47249
    101       0.00000           0.170362            4.63577
    102       0.00000           0.261076            7.10424
    103       0.00000           0.261077            7.10426
    104       0.00000           0.274635            7.47319
    105       0.00000           0.274635            7.47319
    106       0.00000           0.283274            7.70829
    107       0.00000           0.283276            7.70832
    108       0.00000           0.299275            8.14369
    109       0.00000           0.299276            8.14372
    110       0.00000           0.311216            8.46863
    111       0.00000           0.315470            8.58438
    112       0.00000           0.350273            9.53142
    113       0.00000           0.362051            9.85191
    114       0.00000           0.362051            9.85191
    115       0.00000           0.418474           11.38725
    116       0.00000           0.418474           11.38725
    117       0.00000           0.433112           11.78558
    118       0.00000           0.441054           12.00168
    119       0.00000           0.441054           12.00170
    120       0.00000           0.473862           12.89445
    121       0.00000           0.473863           12.89448
    122       0.00000           0.555901           15.12684

  What follows are estimated values for band gap, HOMO, LUMO, etc.
  | They are estimated on a discrete k-point grid and not necessarily exact.
  | For converged numbers, create a DOS and/or band structure plot on a denser k-grid.

  Highest occupied state (VBM) at    -12.00430096 eV (relative to internal zero)
  | Occupation number:      2.00000000
  | K-point:     125 at    0.400000    0.400000    0.000000 (in units of recip. lattice)

  Lowest unoccupied state (CBM) at    -5.87107814 eV (relative to internal zero)
  | Occupation number:      0.00000000
  | K-point:       1 at    0.000000    0.000000    0.000000 (in units of recip. lattice)

  ESTIMATED overall HOMO-LUMO gap:      6.13322282 eV between HOMO at k-point 125 and LUMO at k-point 1
  | This appears to be an indirect band gap.
  | Smallest direct gap :      6.27973135 eV for k_point 1 at    0.000000    0.000000    0.000000 (in units of recip. lattice)
  The gap value is above 0.2 eV. Unless you are using a very sparse k-point grid,
  this system is most likely an insulator or a semiconductor.
  Calculating total energy contributions from superposition of free atom densities.

  Total energy components:
  | Sum of eigenvalues            :       -2381.78682477 Ha      -64811.71708572 eV
  | XC energy correction          :        -225.51455420 Ha       -6136.56324466 eV
  | XC potential correction       :         298.04586807 Ha        8110.24071458 eV
  | Free-atom electrostatic energy:       -1708.37005214 Ha      -46487.11435695 eV
  | Hartree energy correction     :           0.00000000 Ha           0.00000000 eV
  | DFT+U energy correction       :           0.00000000 Ha           0.00000000 eV
  | Entropy correction            :          -0.00000000 Ha          -0.00000000 eV
  | ---------------------------
  | Total energy                  :       -4017.62556303 Ha     -109325.15397276 eV
  | Total energy, T -> 0          :       -4017.62556303 Ha     -109325.15397276 eV  <-- do not rely on this value for anything but (periodic) metals
  | Electronic free energy        :       -4017.62556303 Ha     -109325.15397276 eV

  Derived energy quantities:
  | Kinetic energy                :        4039.44552691 Ha      109918.90539946 eV
  | Electrostatic energy          :       -7831.55653574 Ha     -213107.49612756 eV
  | Energy correction for multipole
  | error in Hartree potential    :           0.00000000 Ha           0.00000000 eV
  | Sum of eigenvalues per atom                           :       -5400.97642381 eV
  | Total energy (T->0) per atom                          :       -9110.42949773 eV  <-- do not rely on this value for anything but (periodic) metals
  | Electronic free energy per atom                       :       -9110.42949773 eV
  Initialize hartree_potential_storage
  Max. number of atoms included in rho_multipole:           12

  End scf initialization - timings             :  max(cpu_time)    wall_clock(cpu1)
  | Time for scf. initialization               :        1.763 s           1.768 s
  | Boundary condition initialization          :        0.181 s           0.181 s
  | Relaxation initialization                  :        0.025 s           0.026 s
  | Integration                                :        0.462 s           0.458 s
  | Solution of K.-S. eqns.                    :        0.309 s           0.280 s
  | Grid partitioning                          :        0.051 s           0.051 s
  | Preloading free-atom quantities on grid    :        0.195 s           0.196 s
  | Free-atom superposition energy             :        0.017 s           0.018 s
  | Total energy evaluation                    :        0.001 s           0.001 s

  Partial memory accounting:
  | Current value for overall tracked memory usage:
  |   Minimum:       10.370 MB (on task  0)
  |   Maximum:       10.809 MB (on task  1)
  |   Average:       10.414 MB
  | Peak value for overall tracked memory usage:
  |   Minimum:       21.814 MB (on task 18 after allocating wave)
  |   Maximum:       23.563 MB (on task  1 after allocating wave)
  |   Average:       22.501 MB
  | Largest tracked array allocation so far:
  |   Minimum:        4.200 MB (hamiltonian_shell on task 18)
  |   Maximum:        4.993 MB (hamiltonian_shell on task  1)
  |   Average:        4.587 MB
  Note:  These values currently only include a subset of arrays which are explicitly tracked.
  The "true" memory usage will be greater.
------------------------------------------------------------
  Evaluating new KS density using the density matrix
  Evaluating density matrix
  Time summed over all CPUs for getting density from density matrix: real work       17.348 s, elapsed       18.576 s
  Integration grid: deviation in total charge (<rho> - N_e) =  -4.490630E-12

  Time for density update prior                :  max(cpu_time)    wall_clock(cpu1)
  | self-consistency iterative process         :        0.494 s           0.495 s

------------------------------------------------------------
          Begin self-consistency iteration #    1

  Date     :  20240806, Time     :  102233.191
------------------------------------------------------------
  Pulay mixing of updated and previous charge densities.
  Renormalizing the density to the exact electron count on the 3D integration grid.
  | Formal number of electrons (from input files) :     152.0000000000
  | Integrated number of electrons on 3D grid     :     151.9988701936
  | Charge integration error                      :      -0.0011298064
  | Normalization factor for density and gradient :       1.0000074330

  Evaluating partitioned Hartree potential by multipole expansion.
  | Original multipole sum: apparent total charge =   0.248991E-13
  | Sum of charges compensated after spline to logarithmic grids =   0.155035E-04
  | Analytical far-field extrapolation by fixed multipoles:
  | Hartree multipole sum: apparent total charge =   0.247607E-13
  Summing up the Hartree potential.
  Time summed over all CPUs for potential: real work        5.346 s, elapsed        6.024 s
  | RMS charge density error from multipole expansion :   0.118475E-02
  | Average real-space part of the electrostatic potential :      0.05228905 eV

  Integrating Hamiltonian matrix: batch-based integration.
  Time summed over all CPUs for integration: real work       13.807 s, elapsed       14.642 s
  ----------------------------------------------------------------
  Adding Hubbard correction to Hamiltonian
  ----------------------------------------------------------------
  !--Definition for DFT+U occupation matrix is:    'on-site'
  correlated subspace  1      |  U =   1.84 eV
   avg. occ. hubbard projectors:  0.0635
   petukhov mixing factor      :  1.0000
  ----------------------------------------------------------------
   occupation matrix (subspace #           1 , spin            1 )
   0.03851  -0.00000   0.00000  -0.00000   0.00000
  -0.00000   0.03960  -0.00000  -0.00000  -0.00000
   0.00000  -0.00000   0.10179  -0.00000   0.00000
  -0.00000  -0.00000  -0.00000   0.03960   0.00000
   0.00000  -0.00000   0.00000   0.00000   0.09779
  ----------------------------------------------------------------
  correlated subspace  2      |  U =   1.84 eV
   avg. occ. hubbard projectors:  0.0635
   petukhov mixing factor      :  1.0000
  ----------------------------------------------------------------
   occupation matrix (subspace #           2 , spin            1 )
   0.03851  -0.00000  -0.00000  -0.00000  -0.00000
  -0.00000   0.03960   0.00000   0.00000  -0.00000
  -0.00000   0.00000   0.10179  -0.00000   0.00000
  -0.00000   0.00000  -0.00000   0.03960   0.00000
  -0.00000  -0.00000   0.00000   0.00000   0.09779
  ----------------------------------------------------------------
  correlated subspace  3      |  U =   1.84 eV
   avg. occ. hubbard projectors:  0.0635
   petukhov mixing factor      :  1.0000
  ----------------------------------------------------------------
   occupation matrix (subspace #           3 , spin            1 )
   0.03851  -0.00000   0.00000  -0.00000  -0.00000
  -0.00000   0.03960  -0.00000  -0.00000  -0.00000
   0.00000  -0.00000   0.10179  -0.00000   0.00000
  -0.00000  -0.00000  -0.00000   0.03960   0.00000
  -0.00000  -0.00000   0.00000   0.00000   0.09779
  ----------------------------------------------------------------
  correlated subspace  4      |  U =   1.84 eV
   avg. occ. hubbard projectors:  0.0635
   petukhov mixing factor      :  1.0000
  ----------------------------------------------------------------
   occupation matrix (subspace #           4 , spin            1 )
   0.03851  -0.00000  -0.00000  -0.00000  -0.00000
  -0.00000   0.03960  -0.00000   0.00000   0.00000
  -0.00000  -0.00000   0.10179  -0.00000   0.00000
  -0.00000   0.00000  -0.00000   0.03960   0.00000
  -0.00000   0.00000   0.00000   0.00000   0.09779
  ----------------------------------------------------------------
  correlated subspace  5      |  U =   0.00 eV
   avg. occ. hubbard projectors:  1.6748
   petukhov mixing factor      :  1.0000
  ----------------------------------------------------------------
   occupation matrix (subspace #           5 , spin            1 )
   1.63797   0.00000  -0.00000
   0.00000   1.66086  -0.00000
  -0.00000  -0.00000   1.72568
  ----------------------------------------------------------------
  correlated subspace  6      |  U =   0.00 eV
   avg. occ. hubbard projectors:  1.6748
   petukhov mixing factor      :  1.0000
  ----------------------------------------------------------------
   occupation matrix (subspace #           6 , spin            1 )
   1.72568  -0.00000   0.00000
  -0.00000   1.66086  -0.00000
   0.00000  -0.00000   1.63798
  ----------------------------------------------------------------
  correlated subspace  7      |  U =   0.00 eV
   avg. occ. hubbard projectors:  1.6748
   petukhov mixing factor      :  1.0000
  ----------------------------------------------------------------
   occupation matrix (subspace #           7 , spin            1 )
   1.63797  -0.00000   0.00000
  -0.00000   1.66086  -0.00000
   0.00000  -0.00000   1.72568
  ----------------------------------------------------------------
  correlated subspace  8      |  U =   0.00 eV
   avg. occ. hubbard projectors:  1.6748
   petukhov mixing factor      :  1.0000
  ----------------------------------------------------------------
   occupation matrix (subspace #           8 , spin            1 )
   1.72568  -0.00000  -0.00000
  -0.00000   1.66086   0.00000
  -0.00000   0.00000   1.63798
  ----------------------------------------------------------------
  correlated subspace  9      |  U =   0.00 eV
   avg. occ. hubbard projectors:  1.6748
   petukhov mixing factor      :  1.0000
  ----------------------------------------------------------------
   occupation matrix (subspace #           9 , spin            1 )
   1.63797   0.00000  -0.00000
   0.00000   1.66086  -0.00000
  -0.00000  -0.00000   1.72568
  ----------------------------------------------------------------
  correlated subspace 10      |  U =   0.00 eV
   avg. occ. hubbard projectors:  1.6748
   petukhov mixing factor      :  1.0000
  ----------------------------------------------------------------
   occupation matrix (subspace #          10 , spin            1 )
   1.72568  -0.00000   0.00000
  -0.00000   1.66086   0.00000
   0.00000   0.00000   1.63798
  ----------------------------------------------------------------
  correlated subspace 11      |  U =   0.00 eV
   avg. occ. hubbard projectors:  1.6748
   petukhov mixing factor      :  1.0000
  ----------------------------------------------------------------
   occupation matrix (subspace #          11 , spin            1 )
   1.63797   0.00000  -0.00000
   0.00000   1.66086  -0.00000
  -0.00000  -0.00000   1.72568
  ----------------------------------------------------------------
  correlated subspace 12      |  U =   0.00 eV
   avg. occ. hubbard projectors:  1.6748
   petukhov mixing factor      :  1.0000
  ----------------------------------------------------------------
   occupation matrix (subspace #          12 , spin            1 )
   1.72568  -0.00000   0.00000
  -0.00000   1.66086  -0.00000
   0.00000  -0.00000   1.63798
  ----------------------------------------------------------------

  Updating Kohn-Sham eigenvalues and eigenvectors using ELSI and the (modified) LAPACK eigensolver.
  Starting LAPACK eigensolver
  Finished Cholesky decomposition
  | Time :     0.001 s
  Finished transformation to standard eigenproblem
  | Time :     0.003 s
  Finished solving standard eigenproblem
  | Time :     0.012 s
  Finished back-transformation of eigenvectors
  | Time :     0.001 s

  Obtaining occupation numbers and chemical potential using ELSI.
  | Chemical potential (Fermi level):   -11.92410352 eV
  Writing Kohn-Sham eigenvalues.
  K-point:       1 at    0.000000    0.000000    0.000000 (in units of recip. lattice)

  State    Occupation    Eigenvalue [Ha]    Eigenvalue [eV]
      1       2.00000        -180.604108        -4914.48781
      2       2.00000        -180.604100        -4914.48761
      3       2.00000        -180.604100        -4914.48761
      4       2.00000        -180.604099        -4914.48759
      5       2.00000         -20.082549         -546.47396
      6       2.00000         -20.082432         -546.47077
      7       2.00000         -20.082432         -546.47077
      8       2.00000         -20.082425         -546.47060
      9       2.00000         -19.245157         -523.68736
     10       2.00000         -19.245156         -523.68733
     11       2.00000         -19.245155         -523.68732
     12       2.00000         -19.245154         -523.68729
     13       2.00000         -19.245153         -523.68725
     14       2.00000         -19.245153         -523.68725
     15       2.00000         -19.245151         -523.68722
     16       2.00000         -19.245144         -523.68700
     17       2.00000         -16.577431         -451.09486
     18       2.00000         -16.577431         -451.09486
     19       2.00000         -16.577428         -451.09476
     20       2.00000         -16.577427         -451.09474
     21       2.00000         -16.577288         -451.09097
     22       2.00000         -16.577288         -451.09097
     23       2.00000         -16.577288         -451.09095
     24       2.00000         -16.577288         -451.09095
     25       2.00000         -16.577285         -451.09086
     26       2.00000         -16.577285         -451.09086
     27       2.00000         -16.577280         -451.09074
     28       2.00000         -16.577280         -451.09074
     29       2.00000          -2.438737          -66.36142
     30       2.00000          -2.437349          -66.32363
     31       2.00000          -2.437349          -66.32363
     32       2.00000          -2.435949          -66.28554
     33       2.00000          -1.543412          -41.99837
     34       2.00000          -1.532979          -41.71447
     35       2.00000          -1.532978          -41.71446
     36       2.00000          -1.528521          -41.59317
     37       2.00000          -1.528521          -41.59317
     38       2.00000          -1.527426          -41.56337
     39       2.00000          -1.527426          -41.56336
     40       2.00000          -1.523895          -41.46728
     41       2.00000          -1.523895          -41.46728
     42       2.00000          -1.522780          -41.43695
     43       2.00000          -1.522780          -41.43695
     44       2.00000          -1.521829          -41.41108
     45       2.00000          -1.144806          -31.15176
     46       2.00000          -1.123099          -30.56108
     47       2.00000          -1.123098          -30.56104
     48       2.00000          -1.112570          -30.27456
     49       2.00000          -1.105824          -30.09099
     50       2.00000          -1.105822          -30.09095
     51       2.00000          -1.103029          -30.01494
     52       2.00000          -1.097066          -29.85269
     53       2.00000          -0.569147          -15.48728
     54       2.00000          -0.568158          -15.46037
     55       2.00000          -0.568156          -15.46031
     56       2.00000          -0.565891          -15.39869
     57       2.00000          -0.565889          -15.39862
     58       2.00000          -0.560471          -15.25118
     59       2.00000          -0.560470          -15.25116
     60       2.00000          -0.552244          -15.02733
     61       2.00000          -0.514994          -14.01370
     62       2.00000          -0.512202          -13.93773
     63       2.00000          -0.512200          -13.93768
     64       2.00000          -0.509117          -13.85377
     65       2.00000          -0.509115          -13.85371
     66       2.00000          -0.495479          -13.48268
     67       2.00000          -0.495478          -13.48265
     68       2.00000          -0.489782          -13.32765
     69       2.00000          -0.489782          -13.32764
     70       2.00000          -0.475484          -12.93858
     71       2.00000          -0.473644          -12.88851
     72       2.00000          -0.473644          -12.88851
     73       2.00000          -0.468951          -12.76081
     74       2.00000          -0.468950          -12.76077
     75       2.00000          -0.459152          -12.49416
     76       2.00000          -0.459151          -12.49415
     77       0.00000          -0.204811           -5.57319
     78       0.00000          -0.186737           -5.08137
     79       0.00000          -0.186736           -5.08135
     80       0.00000          -0.166818           -4.53936
     81       0.00000          -0.155570           -4.23328
     82       0.00000          -0.155570           -4.23327
     83       0.00000          -0.145666           -3.96377
     84       0.00000          -0.145665           -3.96376
     85       0.00000          -0.140701           -3.82866
[...]
     57       2.00000          -0.497424          -13.53559
     58       2.00000          -0.495527          -13.48399
     59       2.00000          -0.495526          -13.48396
     60       2.00000          -0.480577          -13.07716
     61       2.00000          -0.432886          -11.77943
     62       2.00000          -0.430532          -11.71537
     63       2.00000          -0.430530          -11.71531
     64       2.00000          -0.429276          -11.68120
     65       2.00000          -0.429274          -11.68114
     66       2.00000          -0.406798          -11.06955
     67       2.00000          -0.406797          -11.06952
     68       2.00000          -0.403223          -10.97226
     69       2.00000          -0.403222          -10.97224
     70       2.00000          -0.386573          -10.51920
     71       2.00000          -0.385853          -10.49960
     72       2.00000          -0.385853          -10.49959
     73       2.00000          -0.372381          -10.13299
     74       2.00000          -0.372379          -10.13296
     75       2.00000          -0.360644           -9.81363
     76       2.00000          -0.360643           -9.81361
     77       0.00000          -0.257491           -7.00669
     78       0.00000          -0.244456           -6.65199
     79       0.00000          -0.244456           -6.65198
     80       0.00000          -0.230540           -6.27331
     81       0.00000          -0.195030           -5.30703
     82       0.00000          -0.195029           -5.30700
     83       0.00000          -0.187077           -5.09062
     84       0.00000          -0.187077           -5.09061
     85       0.00000          -0.186001           -5.06134
     86       0.00000          -0.186000           -5.06131
     87       0.00000          -0.176923           -4.81431
     88       0.00000          -0.176922           -4.81430
     89       0.00000          -0.160651           -4.37154
     90       0.00000          -0.160651           -4.37153
     91       0.00000          -0.158562           -4.31468
     92       0.00000          -0.146734           -3.99284
     93       0.00000          -0.145666           -3.96378
     94       0.00000          -0.125411           -3.41260
     95       0.00000          -0.125410           -3.41258
     96       0.00000          -0.101373           -2.75849
     97       0.00000          -0.040718           -1.10798
     98       0.00000           0.040760            1.10912
     99       0.00000           0.040761            1.10917
    100       0.00000           0.174905            4.75940
    101       0.00000           0.231681            6.30435
    102       0.00000           0.303032            8.24592
    103       0.00000           0.303033            8.24595
    104       0.00000           0.355643            9.67753
    105       0.00000           0.355645            9.67760
    106       0.00000           0.363077            9.87982
    107       0.00000           0.363079            9.87989
    108       0.00000           0.370107           10.07113
    109       0.00000           0.371650           10.11310
    110       0.00000           0.374434           10.18887
    111       0.00000           0.374436           10.18892
    112       0.00000           0.380346           10.34974
    113       0.00000           0.380348           10.34980
    114       0.00000           0.390419           10.62383
    115       0.00000           0.437612           11.90804
    116       0.00000           0.474909           12.92293
    117       0.00000           0.474910           12.92296
    118       0.00000           0.482663           13.13394
    119       0.00000           0.482664           13.13395
    120       0.00000           0.502167           13.66467
    121       0.00000           0.502169           13.66471
    122       0.00000           0.568207           15.46171

  What follows are estimated values for band gap, HOMO, LUMO, etc.
  | They are estimated on a discrete k-point grid and not necessarily exact.
  | For converged numbers, create a DOS and/or band structure plot on a denser k-grid.

  Highest occupied state (VBM) at     -9.69861057 eV (relative to internal zero)
  | Occupation number:      2.00000000
  | K-point:     131 at    0.400000    0.600000    0.000000 (in units of recip. lattice)

  Lowest unoccupied state (CBM) at    -7.00668668 eV (relative to internal zero)
  | Occupation number:      0.00000000
  | K-point:       1 at    0.000000    0.000000    0.000000 (in units of recip. lattice)

  ESTIMATED overall HOMO-LUMO gap:      2.69192389 eV between HOMO at k-point 131 and LUMO at k-point 1
  | This appears to be an indirect band gap.
  | Smallest direct gap :      2.80692168 eV for k_point 1 at    0.000000    0.000000    0.000000 (in units of recip. lattice)
  The gap value is above 0.2 eV. Unless you are using a very sparse k-point grid,
  this system is most likely an insulator or a semiconductor.
  | Chemical Potential                          :    -9.25179308 eV

  Self-consistency cycle converged.


------------------------------------------------------------
  End self-consistency iteration #    12       :  max(cpu_time)    wall_clock(cpu1)
  | Time for this iteration                    :        6.037 s           6.048 s
  | Charge density & force component update    :        4.763 s           4.775 s
  | Density mixing                             :        0.007 s           0.002 s
  | Hartree multipole update                   :        0.001 s           0.001 s
  | Hartree multipole summation                :        0.470 s           0.471 s
  | Hartree pot. SCF incomplete forces         :        0.293 s           0.293 s
  | Integration                                :        0.366 s           0.366 s
  | Solution of K.-S. eqns.                    :        0.134 s           0.135 s
  | Total energy evaluation                    :        0.001 s           0.001 s

  Partial memory accounting:
  | Current value for overall tracked memory usage:
  |   Minimum:       12.587 MB (on task  0)
  |   Maximum:       13.467 MB (on task  1)
  |   Average:       12.675 MB
  | Peak value for overall tracked memory usage:
  |   Minimum:       31.288 MB (on task 35 after allocating d_wave)
  |   Maximum:       33.426 MB (on task  2 after allocating d_wave)
  |   Average:       32.062 MB
  | Largest tracked array allocation so far:
  |   Minimum:        4.500 MB (density_matrix_con on task 32)
  |   Maximum:        4.993 MB (hamiltonian_shell on task  1)
  |   Average:        4.778 MB
  Note:  These values currently only include a subset of arrays which are explicitly tracked.
  The "true" memory usage will be greater.
------------------------------------------------------------
  Removing unitary transformations (pure translations, rotations) from forces on atoms.
  Atomic forces before filtering:
  | Net force on center of mass :  -0.167301E-06  0.110050E-07  0.508944E-07 eV/A
  Atomic forces after filtering:
  | Net force on center of mass :   0.212677E-22  0.797538E-23  0.174225E-18 eV/A

  Energy and forces in a compact form:
  | Total energy uncorrected      :         -0.109821757500457E+06 eV
  | Total energy corrected        :         -0.109821757500457E+06 eV  <-- do not rely on this value for anything but (periodic) metals
  | Electronic free energy        :         -0.109821757500457E+06 eV
  Total atomic forces (unitary forces cleaned) [eV/Ang]:
  |    1         -0.523772998293199E-07         -0.579730582537344E-08         -0.795628946344771E-05
  |    2          0.768875075570213E-08         -0.316229191354557E-08          0.796530446687652E-05
  |    3         -0.157938218992541E-07          0.659164366652900E-08          0.785316892332391E-05
  |    4         -0.240433813786642E-07         -0.176469774388182E-07         -0.780545251929790E-05
  |    5          0.935905117053216E-08          0.451339060200307E-07          0.416222868905087E-03
  |    6         -0.157894705717037E-07          0.123625947453837E-07          0.408932792890946E-03
  |    7          0.123584616250941E-07         -0.613200134383458E-07         -0.416225491494144E-03
  |    8         -0.182574269425685E-07          0.585343843432683E-08         -0.408925638400923E-03
  |    9          0.142542782755813E-08          0.448728588937454E-08          0.416205605860910E-03
  |   10          0.187180505538681E-07          0.965808639757427E-08          0.408914837218776E-03
  |   11          0.149729423172192E-07         -0.111719820517048E-08         -0.416229571568272E-03
  |   12          0.617387163715366E-07          0.495683166803448E-08         -0.408952134819835E-03

  ------------------------------------ 
  Start decomposition of the XC Energy 
  ------------------------------------ 
  X and C from original XC functional choice 
  Hartree-Fock Energy :          0.000000000 Ha              0.000000000 eV
  X Energy            :       -238.466231517 Ha          -6488.996316065 eV
  C Energy            :         -6.961199952 Ha           -189.423888479 eV
  Total XC Energy     :       -245.427431469 Ha          -6678.420204544 eV
  ------------------------------------ 
  LDA X and C from self-consistent density 
  X Energy LDA        :       -214.636387354 Ha          -5840.553263973 eV
  C Energy LDA        :        -11.748291463 Ha           -319.687276229 eV
  ------------------------------------ 
  End decomposition of the XC Energy 
  ------------------------------------ 

------------------------------------------------------------
  Relaxation / MD: End force evaluation.       :  max(cpu_time)    wall_clock(cpu1)
  | Time for this force evaluation             :       26.554 s          26.911 s

------------------------------------------------------------
  Geometry optimization: Attempting to predict improved coordinates.

  Removing unitary transformations (pure translations, rotations) from forces on atoms.
  Atomic forces before filtering:
  | Net force on center of mass :   0.212677E-22  0.797538E-23  0.174225E-18 eV/A
  Atomic forces after filtering:
  | Net force on center of mass :   0.212677E-22 -0.398769E-23  0.174225E-18 eV/A
  Net remaining forces (excluding translations, rotations) in present geometry:
  || Forces on atoms   || =   0.416230E-03 eV/A.
  Maximum force component is  0.416230E-03 eV/A.
  Present geometry is converged.

------------------------------------------------------------
  Final atomic structure:
                         x [A]             y [A]             z [A]
  lattice_vector         3.78500000        0.00000000        0.00000000
  lattice_vector         0.00000000        3.78500000        0.00000000
  lattice_vector         0.00000000        0.00000000        9.51330000

            atom         1.89250000        2.83875001        8.32413312  Ti
            atom        -0.00000001        2.83875000        5.94581688  Ti
            atom         1.89249999        0.94625000        1.18916689  Ti
            atom         0.00000002        0.94625000        3.56748311  Ti
            atom         1.89250000        2.83875000        0.78132290  O
            atom        -0.00000000        2.83875000        7.91628950  O
            atom         1.89250000        0.94625001        8.73197710  O
            atom         0.00000000        0.94625000        1.59701050  O
            atom        -0.00000000        0.94625000        5.53797290  O
            atom         1.89250000        0.94624999        3.15963950  O
            atom         0.00000000        2.83875000        3.97532710  O
            atom         1.89249999        2.83875000        6.35366050  O

  Fractional coordinates:
                         L1                L2                L3
       atom_frac         0.50000000        0.75000000        0.87499954  Ti
       atom_frac        -0.00000000        0.75000000        0.62500046  Ti
       atom_frac         0.50000000        0.25000000        0.12500046  Ti
       atom_frac         0.00000000        0.25000000        0.37499954  Ti
       atom_frac         0.50000000        0.75000000        0.08212953  O
       atom_frac        -0.00000000        0.75000000        0.83212865  O
       atom_frac         0.50000000        0.25000000        0.91787047  O
       atom_frac         0.00000000        0.25000000        0.16787135  O
       atom_frac        -0.00000000        0.25000000        0.58212953  O
       atom_frac         0.50000000        0.25000000        0.33212865  O
       atom_frac         0.00000000        0.75000000        0.41787047  O
       atom_frac         0.50000000        0.75000000        0.66787135  O
------------------------------------------------------------

------------------------------------------------------------------------------
  Final output of selected total energy values:

  The following output summarizes some interesting total energy values
  at the end of a run (AFTER all relaxation, molecular dynamics, etc.).

  | Total energy of the DFT / Hartree-Fock s.c.f. calculation      :        -109821.757500457 eV
  | Final zero-broadening corrected energy (caution - metals only) :        -109821.757500457 eV
  | For reference only, the value of 1 Hartree used in FHI-aims is :             27.211384500 eV
  | For reference only, the overall average (free atom contribution
  | + realspace contribution) of the electrostatic potential after
  | s.c.f. convergence is                                          :            -15.855583408 eV

  Before relying on these values, please be sure to understand exactly which
  total energy value is referred to by a given number. Different objects may
  all carry the same name 'total energy'. Definitions:

  Total energy of the DFT / Hartree-Fock s.c.f. calculation:
  | Note that this energy does not include ANY quantities calculated after the
  | s.c.f. cycle, in particular not ANY RPA, MP2, etc. many-body perturbation terms.

  Final zero-broadening corrected energy:
  | For metallic systems only, a broadening of the occupation numbers at the Fermi
  | level can be extrapolated back to zero broadening by an electron-gas inspired
  | formula. For all systems that are not real metals, this value can be
  | meaningless and should be avoided.

------------------------------------------------------------------------------
  Methods described in the following list of references were used in this FHI-aims run.
  If you publish the results, please make sure to cite these reference if they apply.
  FHI-aims is an academic code, and for our developers (often, Ph.D. students
  and postdocs), scientific credit in the community is essential.
  Thank you for helping us!

  For any use of FHI-aims, please cite:

    Volker Blum, Ralf Gehrke, Felix Hanke, Paula Havu, Ville Havu,
    Xinguo Ren, Karsten Reuter, and Matthias Scheffler
    'Ab initio molecular simulations with numeric atom-centered orbitals'
    Computer Physics Communications 180, 2175-2196 (2009)
    http://dx.doi.org/10.1016/j.cpc.2009.06.022


  The provided symmetry information was generated with SPGlib:

    Atsushi Togo, Yusuke Seto, Dimitar Pashov
    SPGlib 1.7.3 obtained from http://spglib.sourceforge.net
    Copyright (C) 2008 Atsushi Togo


 DFT+U infrastructure was used in your run
 please cite:

 Matthias Kick, Karsten Reuter and Harald Oberhofer,
 Intricacies Of DFT+U, not only in a Numeric Atom Centered Orbital Framework

 Journal of Chemical Theory and Computation
 https://


  The ELSI infrastructure was used in your run to solve the Kohn-Sham electronic structure.
  Please check out http://elsi-interchange.org to learn more.
  If scalability is important for your project, please acknowledge ELSI by citing:

    V. W-z. Yu, F. Corsetti, A. Garcia, W. P. Huhn, M. Jacquelin, W. Jia,
    B. Lange, L. Lin, J. Lu, W. Mi, A. Seifitokaldani, A. Vazquez-Mayagoitia,
    C. Yang, H. Yang, and V. Blum
    'ELSI: A unified software interface for Kohn-Sham electronic structure solvers'
    Computer Physics Communications 222, 267-285 (2018).
    http://dx.doi.org/10.1016/j.cpc.2017.09.007


  For the real-space grid partitioning and parallelization used in this calculation, please cite:

    Ville Havu, Volker Blum, Paula Havu, and Matthias Scheffler,
    'Efficient O(N) integration for all-electron electronic structure calculation'
    'using numerically tabulated basis functions'
    Journal of Computational Physics 228, 8367-8379 (2009).
    http://dx.doi.org/10.1016/j.jcp.2009.08.008

  Of course, there are many other important community references, e.g., those cited in the
  above references. Our list is limited to references that describe implementations in the
  FHI-aims code. The reason is purely practical (length of this list) - please credit others as well.

 * A warning was issued further up regarding the accuracy of onsite integrals.
   An integral with a negative eigenvalue was among the flagged integrals.
   In most standard situations, this warning is probably harmless.
   If needed, this can be verified by adjusting the radial_multiplier flag.

------------------------------------------------------------
          Leaving FHI-aims.
          Date     :  20240806, Time     :  102412.471

          Computational steps:
          | Number of self-consistency cycles          :           51
          | Number of SCF (re)initializations          :            3
          | Number of relaxation steps                 :            2

          Detailed time accounting                     :  max(cpu_time)    wall_clock(cpu1)
          | Total time                                 :      101.370 s         102.094 s
          | Preparation time                           :        0.425 s           0.426 s
          | Boundary condition initalization           :        0.352 s           0.353 s
          | Grid partitioning                          :        0.128 s           0.128 s
          | Preloading free-atom quantities on grid    :        0.496 s           0.497 s
          | Free-atom superposition energy             :        0.050 s           0.051 s
          | Total time for integrations                :       21.188 s          21.252 s
          | Total time for solution of K.-S. equations :        6.972 s           6.962 s
          | Total time for EV reorthonormalization     :        0.061 s           0.054 s
          | Total time for density & force components  :       53.219 s          53.348 s
          | Total time for mixing & preconditioning    :        5.425 s           5.131 s
          | Total time for Hartree multipole update    :        0.062 s           0.064 s
          | Total time for Hartree multipole sum       :       10.489 s          10.517 s
          | Total time for total energy evaluation     :        0.047 s           0.047 s
          | Total time NSC force correction            :        1.751 s           1.754 s
          | Total time for scaled ZORA corrections     :        0.000 s           0.000 s

          Partial memory accounting:
          | Residual value for overall tracked memory usage across tasks:     0.000000 MB (should be 0.000000 MB)
          | Peak values for overall tracked memory usage:
          |   Minimum:       31.288 MB (on task 35 after allocating d_wave)
          |   Maximum:       33.426 MB (on task  2 after allocating d_wave)
          |   Average:       32.062 MB
          | Largest tracked array allocation:
          |   Minimum:        4.500 MB (density_matrix_con on task 32)
          |   Maximum:        4.993 MB (hamiltonian_shell on task  1)
          |   Average:        4.778 MB
          Note:  These values currently only include a subset of arrays which are explicitly tracked.
          The "true" memory usage will be greater.

          Have a nice day.
------------------------------------------------------------
