------------------------------------------------------------
          Invoking FHI-aims ...

          When using FHI-aims, please cite the following reference:

            Volker Blum, Ralf Gehrke, Felix Hanke, Paula Havu,
            Ville Havu, Xinguo Ren, Karsten Reuter, and Matthias Scheffler,
            'Ab Initio Molecular Simulations with Numeric Atom-Centered Orbitals',
            Computer Physics Communications 180, 2175-2196 (2009)

          In addition, many other developments in FHI-aims are likely important for
          your particular application. A partial list of references is given at the end of
          this file. Thank you for giving credit to the authors of these developments.

          For any questions about FHI-aims, please visit our slack channel at

            https://fhi-aims.slack.com

          and our main development and support site at

            https://aims-git.rz-berlin.mpg.de .

          The latter site, in particular, has a wiki to collect information, as well
          as an issue tracker to log discussions, suggest improvements, and report issues
          or bugs. https://aims-git.rz-berlin.mpg.de is also the main development site
          of the project and all new and updated code versions can be obtained there.
          Please send an email to aims-coordinators@fhi-berlin.mpg.de and we will add
          you to these sites. They are for you and everyone is welcome there.

------------------------------------------------------------



  Date     :  20240813, Time     :  184810.006
  Time zero on CPU 1             :   0.151782000000000E+00  s.
  Internal wall clock time zero  :           492806890.006  s.

  FHI-aims created a unique identifier for this run for later identification
  aims_uuid : 771E7F95-6B65-4D6C-A45E-E62F167FF8AD

  Build configuration of the current instance of FHI-aims
  -------------------------------------------------------
  FHI-aims version      : 210618
  Commit number         : f9e1e7592
  CMake host system     : Linux-3.10.0-1127.13.1.el7.x86_64
  CMake version         : 3.17.3
  Fortran compiler      : /apps/compilers/intel/2018.2/compilers_and_libraries_2018/linux/mpi/intel64/bin/mpif90 (Intel) version 18.0.2.20180210
  Fortran compiler flags: -O3 -ip -fp-model precise
  C compiler            : /apps/compilers/intel/2018.2/compilers_and_libraries_2018/linux/bin/intel64/icc (Intel) version 18.0.2.20180210
  C compiler flags      : -O3 -ip -fp-model precise -std=gnu99
  ELPA2 kernel          : AVX2
  Using MPI
  Using ScaLAPACK
  Using LibXC
  Using i-PI
  Using RLSY
  Linking against: /apps/compilers/intel/2018.2/compilers_and_libraries_2018/linux/mkl/lib/intel64/libmkl_intel_lp64.so
                   /apps/compilers/intel/2018.2/compilers_and_libraries_2018/linux/mkl/lib/intel64/libmkl_intel_thread.so
                   /apps/compilers/intel/2018.2/compilers_and_libraries_2018/linux/mkl/lib/intel64/libmkl_core.so
                   /apps/compilers/intel/2018.2/compilers_and_libraries_2018/linux/mkl/lib/intel64/libmkl_blacs_intelmpi_lp64.so
                   /apps/compilers/intel/2018.2/compilers_and_libraries_2018/linux/mkl/lib/intel64/libmkl_scalapack_lp64.so
                   /usr/lib64/libpthread.so

  Using      120 parallel tasks.
  Task        0 on host ccs0025 reporting.
  Task        1 on host ccs0025 reporting.
  Task        2 on host ccs0025 reporting.
  Task        3 on host ccs0025 reporting.
  Task        4 on host ccs0025 reporting.
  Task        5 on host ccs0025 reporting.
  Task        6 on host ccs0025 reporting.
  Task        7 on host ccs0025 reporting.
  Task        8 on host ccs0025 reporting.
  Task        9 on host ccs0025 reporting.
  Task       10 on host ccs0025 reporting.
  Task       11 on host ccs0025 reporting.
  Task       12 on host ccs0025 reporting.
  Task       13 on host ccs0025 reporting.
  Task       14 on host ccs0025 reporting.
  Task       15 on host ccs0025 reporting.
  Task       16 on host ccs0025 reporting.
  Task       17 on host ccs0025 reporting.
  Task       18 on host ccs0025 reporting.
  Task       19 on host ccs0025 reporting.
  Task       20 on host ccs0025 reporting.
  Task       21 on host ccs0025 reporting.
  Task       22 on host ccs0025 reporting.
  Task       23 on host ccs0025 reporting.
  Task       24 on host ccs0025 reporting.
  Task       25 on host ccs0025 reporting.
  Task       26 on host ccs0025 reporting.
  Task       27 on host ccs0025 reporting.
  Task       28 on host ccs0025 reporting.
  Task       29 on host ccs0025 reporting.
  Task       30 on host ccs0025 reporting.
  Task       31 on host ccs0025 reporting.
  Task       32 on host ccs0025 reporting.
  Task       33 on host ccs0025 reporting.
  Task       34 on host ccs0025 reporting.
  Task       35 on host ccs0025 reporting.
  Task       36 on host ccs0025 reporting.
  Task       37 on host ccs0025 reporting.
  Task       38 on host ccs0025 reporting.
  Task       39 on host ccs0025 reporting.
  Task       40 on host ccs0034 reporting.
  Task       41 on host ccs0034 reporting.
  Task       42 on host ccs0034 reporting.
  Task       43 on host ccs0034 reporting.
  Task       44 on host ccs0034 reporting.
  Task       45 on host ccs0034 reporting.
  Task       46 on host ccs0034 reporting.
  Task       47 on host ccs0034 reporting.
  Task       48 on host ccs0034 reporting.
  Task       49 on host ccs0034 reporting.
  Task       50 on host ccs0034 reporting.
  Task       51 on host ccs0034 reporting.
  Task       52 on host ccs0034 reporting.
  Task       53 on host ccs0034 reporting.
  Task       54 on host ccs0034 reporting.
  Task       55 on host ccs0034 reporting.
  Task       56 on host ccs0034 reporting.
  Task       57 on host ccs0034 reporting.
  Task       58 on host ccs0034 reporting.
  Task       59 on host ccs0034 reporting.
  Task       60 on host ccs0034 reporting.
  Task       61 on host ccs0034 reporting.
  Task       62 on host ccs0034 reporting.
  Task       63 on host ccs0034 reporting.
  Task       64 on host ccs0034 reporting.
  Task       65 on host ccs0034 reporting.
  Task       66 on host ccs0034 reporting.
  Task       67 on host ccs0034 reporting.
  Task       68 on host ccs0034 reporting.
  Task       69 on host ccs0034 reporting.
  Task       70 on host ccs0034 reporting.
  Task       71 on host ccs0034 reporting.
  Task       72 on host ccs0034 reporting.
  Task       73 on host ccs0034 reporting.
  Task       74 on host ccs0034 reporting.
  Task       75 on host ccs0034 reporting.
  Task       76 on host ccs0034 reporting.
  Task       77 on host ccs0034 reporting.
  Task       78 on host ccs0034 reporting.
  Task       79 on host ccs0034 reporting.
  Task       80 on host ccs0038 reporting.
  Task       81 on host ccs0038 reporting.
  Task       82 on host ccs0038 reporting.
  Task       83 on host ccs0038 reporting.
  Task       84 on host ccs0038 reporting.
  Task       85 on host ccs0038 reporting.
  Task       86 on host ccs0038 reporting.
  Task       87 on host ccs0038 reporting.
  Task       88 on host ccs0038 reporting.
  Task       89 on host ccs0038 reporting.
  Task       90 on host ccs0038 reporting.
  Task       91 on host ccs0038 reporting.
  Task       92 on host ccs0038 reporting.
  Task       93 on host ccs0038 reporting.
  Task       94 on host ccs0038 reporting.
  Task       95 on host ccs0038 reporting.
  Task       96 on host ccs0038 reporting.
  Task       97 on host ccs0038 reporting.
  Task       98 on host ccs0038 reporting.
  Task       99 on host ccs0038 reporting.
  Task      100 on host ccs0038 reporting.
  Task      101 on host ccs0038 reporting.
  Task      102 on host ccs0038 reporting.
  Task      103 on host ccs0038 reporting.
  Task      104 on host ccs0038 reporting.
  Task      105 on host ccs0038 reporting.
  Task      106 on host ccs0038 reporting.
  Task      107 on host ccs0038 reporting.
  Task      108 on host ccs0038 reporting.
  Task      109 on host ccs0038 reporting.
  Task      110 on host ccs0038 reporting.
  Task      111 on host ccs0038 reporting.
  Task      112 on host ccs0038 reporting.
  Task      113 on host ccs0038 reporting.
  Task      114 on host ccs0038 reporting.
  Task      115 on host ccs0038 reporting.
  Task      116 on host ccs0038 reporting.
  Task      117 on host ccs0038 reporting.
  Task      118 on host ccs0038 reporting.
  Task      119 on host ccs0038 reporting.

  Performing system and environment tests:
  *** Environment variable OMP_NUM_THREADS is not set
  *** For performance reasons you might want to set it to 1
  | Checking for ScaLAPACK...
  | Testing pdtran()...
  | All pdtran() tests passed.

  Obtaining array dimensions for all initial allocations:
  
  -----------------------------------------------------------------------
  Parsing control.in (first pass over file, find array dimensions only).
  The contents of control.in will be repeated verbatim below
  unless switched off by setting 'verbatim_writeout .false.' .
  in the first line of control.in .
  -----------------------------------------------------------------------
  
  #===============================================================================
  # FHI-aims file: ./control.in
  # Created using the Atomic Simulation Environment (ASE)
  # Tue May 21 18:14:20 2024
  #===============================================================================
  spin                               none
  relativistic                       atomic_zora scalar
  compute_forces                     .true.
  override_warning_libxc             true
  xc                                 libxc MGGA_X_MBEEF+GGA_C_PBE_SOL
  k_grid                             3 6 7
  occupation_type                    gaussian 0.1
  plus_u_petukhov_mixing             1
  plus_u_use_hydros                  True
  plus_u_matrix_control              True
  sc_accuracy_etot                   1e-06
  sc_accuracy_eev                    0.001
  sc_accuracy_rho                    1e-06
  sc_accuracy_forces                 0.0001
  relax_geometry                     bfgs 0.01
  #===============================================================================
  
  ################################################################################
  #
  #  FHI-aims code project
  #  VB, Fritz-Haber Institut, 2009
  #
  #  Suggested "light" defaults for Li atom (to be pasted into control.in file)
  #  Be sure to double-check any results obtained with these settings for post-processing,
  #  e.g., with the "tight" defaults and larger basis sets.
  #
  ################################################################################
    species        Li
  #     global species definitions
      nucleus             3
      mass                6.941
  #
      l_hartree           4
  #
      cut_pot             3.5  1.5  1.0
      basis_dep_cutoff    1e-4
  #
      radial_base         29 5.0
      radial_multiplier   1
      angular_grids       specified
        division   0.4484  110
        division   0.5659  194
        division   0.6315  302
  #      division   0.6662  434
  #      division   0.8186  590
  #      division   0.9037  770
  #      division   6.2760  974
  #      outer_grid   974
        outer_grid   302
  ################################################################################
  #
  #  Definition of "minimal" basis
  #
  ################################################################################
  #     valence basis states
      valence      2  s   1.
  #     ion occupancy
      ion_occ      1  s   2.
  ################################################################################
  #
  #  Suggested additional basis functions. For production calculations,
  #  uncomment them one after another (the most important basis functions are
  #  listed first).
  #
  #  Constructed for dimers: 1.80 A, 2.25 A, 2.75 A, 3.50 A, 4.50 A
  #
  ################################################################################
  #  "First tier" - improvements: -189.23 meV to -6.35 meV
       hydro 2 p 1.6
       hydro 2 s 2
       hydro 3 d 2.6
  #  "Second tier" - improvements: -4.69 meV to -0.41 meV
  #     hydro 3 p 4.6
  #     hydro 2 p 1.8
  #     hydro 3 s 6.2
  #     hydro 4 d 4.7
  #     hydro 4 f 4.1
  #  "Third tier" - improvements: -0.20 meV to -0.15 meV
  #     hydro 4 d 0.95
  #     hydro 3 p 6.2
  #     hydro 3 s 1.7
  #  Further functions, listed for completeness
  #     VB: The following functions are only listed for completeness; test very
  #         carefully before any kind of production use. From the point of view
  #         of the basis construction, their main role is to fill up space,
  #         and they are solely determined by the location of the cutoff potential.
  #     hydro 3 p 0.1  # -0.15 meV
  #     hydro 4 d 5    # -0.12 meV
  #     hydro 4 f 0.1  # -0.14 meV
  #     hydro 5 g 0.1  # -0.06 meV
  
  
  ################################################################################
  #
  #  FHI-aims code project
  #  VB, Fritz-Haber Institut, 2009
  #
  #  Suggested "light" defaults for Fe atom (to be pasted into control.in file)
  #  Be sure to double-check any results obtained with these settings for post-processing,
  #  e.g., with the "tight" defaults and larger basis sets.
  #
  ################################################################################
    species        Fe
  #     global species definitions
      nucleus             26
      mass                55.845
  #
      l_hartree           4
  #
      cut_pot             3.5          1.5  1.0
      basis_dep_cutoff    1e-4
  #
      radial_base         51 5.0
      radial_multiplier   1
      angular_grids       specified
        division   0.4337   50
        division   0.8154  110
        division   1.1046  194
        division   1.3713  302
  #      division   1.5424  434
  #      division   1.7365  590
  #      division   1.9587  770
  #      division   1.9990  974
  #      division   2.4139 1202
  #      outer_grid  1202
        outer_grid  302
  ################################################################################
  #
  #  Definition of "minimal" basis
  #
  ################################################################################
  #     valence basis states
      valence      4  s   2.
      valence      3  p   6.
      valence      3  d   6.
  #     ion occupancy
      ion_occ      4  s   1.
      ion_occ      3  p   6.
      ion_occ      3  d   5.
  ################################################################################
  #
  #  Suggested additional basis functions. For production calculations,
  #  uncomment them one after another (the most important basis functions are
  #  listed first).
  #
  #  Constructed for dimers: 1.45 A, 1.725 A, 2.25 A, 3.00 A, 4.00 A
  #
  ################################################################################
  #  "First tier" - improvements: -300.53 meV to -10.50 meV
       hydro 4 f 9.4
       hydro 2 p 2.2
  #     hydro 5 g 12.4
       hydro 3 d 3.1
       ionic 4 s auto
  #  "Second tier" - improvements: -16.31 meV to -0.65 meV
  #     hydro 3 d 6.2
  #     hydro 6 h 19.2
  #     hydro 4 f 15.2
  #     hydro 4 f 6.6
  #     hydro 3 p 3
  #     hydro 5 g 13.2
  #     hydro 1 s 0.65
  #  "Third tier" - improvements: -1.60 meV to -0.10 meV
  #     hydro 4 d 7.8
  #     hydro 4 p 19.6
  #     hydro 4 d 10.4
  #     ionic 4 p auto
  #     hydro 6 h 17.6
  #     hydro 5 f 27.2
  #     hydro 4 s 4.8
  #  "Fourth tier": improvements -0.13 meV and below
  #     hydro 5 f 12
  #     hydro 5 g 10.4
  #     hydro 5 p 8.4
  #     hydro 4 d 14.8
  #     hydro 2 s 1.9
  plus_u 3 d 3.367
  hubbard_coefficient 1 -0.6 0 0
  ################################################################################
  #
  #  FHI-aims code project
  #  VB, Fritz-Haber Institut, 2010
  #
  #  Suggested "light" defaults for P atom (to be pasted into control.in file)
  #  Be sure to double-check any results obtained with these settings for post-processing,
  #  e.g., with the "tight" defaults and larger basis sets.
  #
  #  2020/09/08 Added f function to "light" after reinspection of Delta test outcomes.
  #             This was done for all of Al-Cl and is a tricky decision since it makes
  #             "light" calculations measurably more expensive for these elements.
  #             Nevertheless, outcomes for P, S, Cl (and to some extent, Si) appear
  #             to justify this choice.
  #
  ################################################################################
    species        P
  #     global species definitions
      nucleus             15
      mass                30.973762
  #
      l_hartree           4
  #
      cut_pot             3.5          1.5  1.0
      basis_dep_cutoff    1e-4
  #
      radial_base         43 5.0
      radial_multiplier   1
      angular_grids       specified
        division   0.5527   50
        division   0.8801  110
        division   1.1447  194
        division   1.3165  302
  #      division   1.4113  434
  #      division   1.4781  590
  #      division   1.5482  770
  #      division   1.5845  974
  #      division   2.2606 1202
        outer_grid  302
  ################################################################################
  #
  #  Definition of "minimal" basis
  #
  ################################################################################
  #     valence basis states
      valence      3  s   2.
      valence      3  p   3.
  #     ion occupancy
      ion_occ      3  s   1.
      ion_occ      3  p   2.
  ################################################################################
  #
  #  Suggested additional basis functions. For production calculations,
  #  uncomment them one after another (the most important basis functions are
  #  listed first).
  #
  #  Constructed for dimers: 1.625 A, 1.875 A, 2.5 A, 3.25 A, 4.0 A
  #
  ################################################################################
  #  "First tier" - improvements: -726.20 meV to -35.91 meV
       ionic 3 d auto
       ionic 3 p auto
       hydro 4 f 6.2
  #     hydro 5 g 8.6
       ionic 3 s auto
  #  "Second tier" - improvements: -16.02 meV to -1.71 meV
  #     hydro 4 d 6.2
  #     hydro 4 p 9.2
  #     hydro 5 f 9.8
  #     hydro 1 s 0.7
  #     hydro 5 g 13.2
  #  "Third tier" - improvements: -1.82 meV to -0.20 meV
  #     hydro 3 p 2.5
  #     hydro 4 d 6.4
  #     hydro 5 f 11.2
  #     hydro 2 s 1.5
  #  "Fourth tier" - improvements: -0.91 meV to -0.17 meV
  #     hydro 3 d 16.8
  #     hydro 5 g 18
  #     hydro 4 p 4.5
  #     hydro 3 s 2.1
  #  Further basis functions that fell out of the optimization - < -0.09 meV
  #     hydro 4 p 10.4
  #     hydro 4 d 17.6
  #     hydro 4 s 11.2
  ################################################################################
  #
  #  FHI-aims code project
  #  VB, Fritz-Haber Institut, 2009
  #
  #  Suggested "light" defaults for O atom (to be pasted into control.in file)
  #  Be sure to double-check any results obtained with these settings for post-processing,
  #  e.g., with the "tight" defaults and larger basis sets.
  #
  ################################################################################
    species        O
  #     global species definitions
      nucleus             8
      mass                15.9994
  #
      l_hartree           4
  #
      cut_pot             3.5  1.5  1.0
      basis_dep_cutoff    1e-4
  #
      radial_base         36 5.0
      radial_multiplier   1
       angular_grids specified
        division   0.2659   50
        division   0.4451  110
        division   0.6052  194
        division   0.7543  302
  #      division   0.8014  434
  #      division   0.8507  590
  #      division   0.8762  770
  #      division   0.9023  974
  #      division   1.2339 1202
  #      outer_grid 974
        outer_grid 302
  ################################################################################
  #
  #  Definition of "minimal" basis
  #
  ################################################################################
  #     valence basis states
      valence      2  s   2.
      valence      2  p   4.
  #     ion occupancy
      ion_occ      2  s   1.
      ion_occ      2  p   3.
  ################################################################################
  #
  #  Suggested additional basis functions. For production calculations,
  #  uncomment them one after another (the most important basis functions are
  #  listed first).
  #
  #  Constructed for dimers: 1.0 A, 1.208 A, 1.5 A, 2.0 A, 3.0 A
  #
  ################################################################################
  #  "First tier" - improvements: -699.05 meV to -159.38 meV
       hydro 2 p 1.8
       hydro 3 d 7.6
       hydro 3 s 6.4
  #  "Second tier" - improvements: -49.91 meV to -5.39 meV
  #     hydro 4 f 11.6
  #     hydro 3 p 6.2
  #     hydro 3 d 5.6
  #     hydro 5 g 17.6
  #     hydro 1 s 0.75
  #  "Third tier" - improvements: -2.83 meV to -0.50 meV
  #     ionic 2 p auto
  #     hydro 4 f 10.8
  #     hydro 4 d 4.7
  #     hydro 2 s 6.8
  #  "Fourth tier" - improvements: -0.40 meV to -0.12 meV
  #     hydro 3 p 5
  #     hydro 3 s 3.3
  #     hydro 5 g 15.6
  #     hydro 4 f 17.6
  #     hydro 4 d 14
  # Further basis functions - -0.08 meV and below
  #     hydro 3 s 2.1
  #     hydro 4 d 11.6
  #     hydro 3 p 16
  #     hydro 2 s 17.2
  plus_u 2 p 0
  hubbard_coefficient 1 0 0 0
  
  -----------------------------------------------------------------------
  Completed first pass over input file control.in .
  -----------------------------------------------------------------------
  
  
  -----------------------------------------------------------------------
  Parsing geometry.in (first pass over file, find array dimensions only).
  The contents of geometry.in will be repeated verbatim below
  unless switched off by setting 'verbatim_writeout .false.' .
  in the first line of geometry.in .
  -----------------------------------------------------------------------
  
  #=======================================================
  # FHI-aims file: C:\Users\amit_\OneDrive\PhD Python\DFTdevelopment\Battery\LiFePO4\geometry.in
  # Created using the Atomic Simulation Environment (ASE)
  # Wed May 22 10:04:14 2024
  #=======================================================
  lattice_vector 10.3480000000000008 0.0000000000000000 0.0000000000000000
  lattice_vector 0.0000000000000000 6.0180999999999996 0.0000000000000000
  lattice_vector 0.0000000000000000 0.0000000000000000 4.6996799999999999
  atom 5.1739999999629793 -0.0000000000572480 2.3498400049674726 Li
  atom -0.0000000013195023 3.0090500080048201 0.0000000018914148 Li
  atom 5.1740000007368181 3.0090499993713951 2.3498399971778521 Li
  atom 0.0000000016793807 0.0000000073637017 0.0000000000228135 Li
  atom 7.9651717532834692 1.5045249858585041 2.4000275425306508 Fe
  atom 2.7911717565425516 1.5045250018319436 4.6494924541731830 Fe
  atom 2.3828282440821935 4.5135750124530807 2.2996524554246398 Fe
  atom 7.5568282402062179 4.5135749979458817 0.0501875410609290 Fe
  atom 6.1794705938522076 1.5045249973654253 0.3915696866109627 P
  atom 1.0054705955499315 1.5045250092451314 1.9582703145081914 P
  atom 4.1685294061458187 4.5135749936918437 4.3081103141291006 P
  atom 9.3425294052146146 4.5135749978533788 2.7414096854226808 P
  atom 6.2580017925067475 1.5045249922115957 3.5606600470568077 O
  atom 1.0840017949834737 1.5045250030313573 3.4888599540967533 O
  atom 4.0899982075341654 4.5135750034426234 1.1390199533995582 O
  atom 9.2639982057414603 4.5135749985499745 1.2108200459212253 O
  atom 9.9009021116254043 1.5045249949186863 1.4382978256567569 O
  atom 4.7269021097362662 1.5045249986836546 0.9115421762916168 O
  atom 0.4470978894160501 4.5135750062999733 3.2613821746153118 O
  atom 5.6210978904696800 4.5135749964991287 3.7881378241656689 O
  atom 6.9055706667670744 0.2809015457061673 1.0656934762981034 O
  atom 1.7315706597914009 2.7281484644244340 1.2841465243760282 O
  atom 3.4424293341097099 3.2899515430515192 3.6339865234237818 O
  atom 8.6164293252543107 5.7371984444099891 3.4155334793371317 O
  atom 3.4424293328949624 5.7371984452656788 3.6339865242032219 O
  atom 8.6164293382152053 3.2899515422800634 3.4155334725018420 O
  atom 6.9055706669597212 2.7281484479632465 1.0656934763365966 O
  atom 1.7315706780576996 0.2809015623340484 1.2841465243996941 O
  
  -----------------------------------------------------------------------
  Completed first pass over input file geometry.in .
  -----------------------------------------------------------------------
  

  Basic array size parameters:
  | Number of species                 :        4
  | Number of atoms                   :       28
  | Number of lattice vectors         :        3
  | Max. basis fn. angular momentum   :        3
  | Max. atomic/ionic basis occupied n:        4
  | Max. number of basis fn. types    :        3
  | Max. radial fns per species/type  :        7
  | Max. logarithmic grid size        :     1397
  | Max. radial integration grid size :       51
  | Max. angular integration grid size:      302
  | Max. angular grid division number :        8
  | Radial grid for Hartree potential :     1397
  | Number of spin channels           :        1
  | Max. number of (n,l) shells per species with '+U' treatment:        1

------------------------------------------------------------
          Reading file control.in.
------------------------------------------------------------
  Spin treatment: No spin polarisation.
  Scalar relativistic treatment of kinetic energy: on-site free-atom approximation to ZORA.
  Forces will be computed.
  XC: Using LibXC. Please refer to LibXC output for further details.
  Using libxc - Initializing
  Libxc version: 4.3.4


  ** PLEASE ** be careful using LibXC. Whilst most of the LDA, GGA and MGGA functionals,
  and hybrid variations therein, should be stable (though we always recommend testing!),
  there are several fancy functionals with e.g. range-separation, like HSE03/HSE06/LC-PBEh,
  and also MGGA functionals that depend on the laplacian of the density, like BR89,
  that are not fully implemented due to the infrastrucutre for these functionals being incomplete or non-generic.
  If you want to use these functionals please contact the development team and we will work on them with you!

  You have selected libxc functional MGGA_X_MBEEF (249)
    - Description: mBEEF exchange
    - Type: MGGA(Exchange)
    - Reference to Literature:
      [1] J. Wellendorff, K. T. Lundgaard, K. W. Jacobsen, and T. Bligaard, J. Chem. Phys. 140, 144107 (2014)

  You have selected libxc functional GGA_C_PBE_SOL (133)
    - Description: Perdew, Burke & Ernzerhof SOL
    - Type: GGA(Correlation)
    - Reference to Literature:
      [1] J. P. Perdew, A. Ruzsinszky, G. I. Csonka, O. A. Vydrov, G. E. Scuseria, L. A. Constantin, X. Zhou, and K. Burke, Phys.

  Switching on meta-ggas
  Found k-point grid:         3         6         7
  Occupation type: Gaussian broadening, width =   0.100000E+00 eV.
  Fixing petukhov mixing factor to   1.000000000000
  hydrogenic basis funktions also used for DFT+U reference states
  Convergence accuracy of total energy:  0.1000E-05
  Convergence accuracy of sum of eigenvalues:  0.1000E-02
  Convergence accuracy of self-consistent charge density:  0.1000E-05
  Convergence accuracy of forces:  0.1000E-03
  Geometry relaxation: Modified BFGS - TRM (trust radius method) for lattice optimization.
  Convergence accuracy for geometry relaxation: Maximum force <   0.100000E-01 eV/A.
 
  Reading configuration options for species Li                  .
  | Found nuclear charge :   3.0000
  | Found atomic mass :    6.94100000000000      amu
  | Found l_max for Hartree potential  :   4
  | Found cutoff potl. onset [A], width [A], scale factor :    3.50000    1.50000    1.00000
  | Threshold for basis-dependent cutoff potential is   0.100000E-03
  | Found data for basic radial integration grid :    29 points, outermost radius =    5.000 A
  | Found multiplier for basic radial grid :   1
  | Found angular grid specification: user-specified.
  | Specified grid contains     4 separate shells.
  | Check grid settings after all constraints further below.
  | Found free-atom valence shell :  2 s   1.000
  | Found free-ion valence shell :  1 s   2.000
  | Found hydrogenic basis function :  2 p   1.600
  | Found hydrogenic basis function :  2 s   2.000
  | Found hydrogenic basis function :  3 d   2.600
  Species Li                  : Missing cutoff potential type.
  Defaulting to exp(1/x)/(1-x)^2 type cutoff potential.
  Species Li: No 'logarithmic' tag. Using default grid for free atom:
  | Default logarithmic grid data [bohr] : 0.1000E-03 0.1000E+03 0.1012E+01
  Species Li: On-site basis accuracy parameter (for Gram-Schmidt orthonormalisation) not specified.
  Using default value basis_acc =  0.1000000E-03.
  Species Li                  : Using default innermost maximum threshold i_radial=  2 for radial functions.
  Species Li                  : Default cutoff onset for free atom density etc. : 0.35000000E+01 AA.
  Species Li                  : Basic radial grid will be enhanced according to radial_multiplier =   1, to contain    29 grid points.
 
  Reading configuration options for species Fe                  .
  | Found nuclear charge :  26.0000
  | Found atomic mass :    55.8450000000000      amu
  | Found l_max for Hartree potential  :   4
  | Found cutoff potl. onset [A], width [A], scale factor :    3.50000    1.50000    1.00000
  | Threshold for basis-dependent cutoff potential is   0.100000E-03
  | Found data for basic radial integration grid :    51 points, outermost radius =    5.000 A
  | Found multiplier for basic radial grid :   1
  | Found angular grid specification: user-specified.
  | Specified grid contains     5 separate shells.
  | Check grid settings after all constraints further below.
  | Found free-atom valence shell :  4 s   2.000
  | Found free-atom valence shell :  3 p   6.000
  | Found free-atom valence shell :  3 d   6.000
  | Found free-ion valence shell :  4 s   1.000
  | Found free-ion valence shell :  3 p   6.000
  | Found free-ion valence shell :  3 d   5.000
  | Found hydrogenic basis function :  4 f   9.400
  | Found hydrogenic basis function :  2 p   2.200
  | Found hydrogenic basis function :  3 d   3.100
  | Found ionic basis function :  4 s , default cutoff radius.
  | Found request for '+U' treatment for  3 d shell, U =     3.367000 eV.
  | Found coefficents for linear combination of hubbard projectors 
  Species Fe                  : Missing cutoff potential type.
  Defaulting to exp(1/x)/(1-x)^2 type cutoff potential.
  Species Fe: No 'logarithmic' tag. Using default grid for free atom:
  | Default logarithmic grid data [bohr] : 0.1000E-03 0.1000E+03 0.1012E+01
  | Will include ionic basis functions of  2.0-fold positive Fe                   ion.
  Species Fe: On-site basis accuracy parameter (for Gram-Schmidt orthonormalisation) not specified.
  Using default value basis_acc =  0.1000000E-03.
  Species Fe                  : Using default innermost maximum threshold i_radial=  2 for radial functions.
  Species Fe                  : Default cutoff onset for free atom density etc. : 0.35000000E+01 AA.
  Species Fe                  : Basic radial grid will be enhanced according to radial_multiplier =   1, to contain    51 grid points.
 
  Reading configuration options for species P                   .
  | Found nuclear charge :  15.0000
  | Found atomic mass :    30.9737620000000      amu
  | Found l_max for Hartree potential  :   4
  | Found cutoff potl. onset [A], width [A], scale factor :    3.50000    1.50000    1.00000
  | Threshold for basis-dependent cutoff potential is   0.100000E-03
  | Found data for basic radial integration grid :    43 points, outermost radius =    5.000 A
  | Found multiplier for basic radial grid :   1
  | Found angular grid specification: user-specified.
  | Specified grid contains     5 separate shells.
  | Check grid settings after all constraints further below.
  | Found free-atom valence shell :  3 s   2.000
  | Found free-atom valence shell :  3 p   3.000
  | Found free-ion valence shell :  3 s   1.000
  | Found free-ion valence shell :  3 p   2.000
  | Found ionic basis function :  3 d , default cutoff radius.
  | Found ionic basis function :  3 p , default cutoff radius.
  | Found hydrogenic basis function :  4 f   6.200
  | Found ionic basis function :  3 s , default cutoff radius.
  Species P                   : Missing cutoff potential type.
  Defaulting to exp(1/x)/(1-x)^2 type cutoff potential.
  Species P : No 'logarithmic' tag. Using default grid for free atom:
  | Default logarithmic grid data [bohr] : 0.1000E-03 0.1000E+03 0.1012E+01
  | Will include ionic basis functions of  2.0-fold positive P                    ion.
  Species P : On-site basis accuracy parameter (for Gram-Schmidt orthonormalisation) not specified.
  Using default value basis_acc =  0.1000000E-03.
  Species P                   : Using default innermost maximum threshold i_radial=  2 for radial functions.
  Species P                   : Default cutoff onset for free atom density etc. : 0.35000000E+01 AA.
  Species P                   : Basic radial grid will be enhanced according to radial_multiplier =   1, to contain    43 grid points.
 
  Reading configuration options for species O                   .
  | Found nuclear charge :   8.0000
  | Found atomic mass :    15.9994000000000      amu
  | Found l_max for Hartree potential  :   4
  | Found cutoff potl. onset [A], width [A], scale factor :    3.50000    1.50000    1.00000
  | Threshold for basis-dependent cutoff potential is   0.100000E-03
  | Found data for basic radial integration grid :    36 points, outermost radius =    5.000 A
  | Found multiplier for basic radial grid :   1
  | Found angular grid specification: user-specified.
  | Specified grid contains     5 separate shells.
  | Check grid settings after all constraints further below.
  | Found free-atom valence shell :  2 s   2.000
  | Found free-atom valence shell :  2 p   4.000
  | Found free-ion valence shell :  2 s   1.000
  | Found free-ion valence shell :  2 p   3.000
  | Found hydrogenic basis function :  2 p   1.800
  | Found hydrogenic basis function :  3 d   7.600
  | Found hydrogenic basis function :  3 s   6.400
  | Found request for '+U' treatment for  2 p shell, U =     0.000000 eV.
  | Found coefficents for linear combination of hubbard projectors 
  Species O                   : Missing cutoff potential type.
  Defaulting to exp(1/x)/(1-x)^2 type cutoff potential.
  Species O : No 'logarithmic' tag. Using default grid for free atom:
  | Default logarithmic grid data [bohr] : 0.1000E-03 0.1000E+03 0.1012E+01
  Species O : On-site basis accuracy parameter (for Gram-Schmidt orthonormalisation) not specified.
  Using default value basis_acc =  0.1000000E-03.
  Species O                   : Using default innermost maximum threshold i_radial=  2 for radial functions.
  Species O                   : Default cutoff onset for free atom density etc. : 0.35000000E+01 AA.
  Species O                   : Basic radial grid will be enhanced according to radial_multiplier =   1, to contain    36 grid points.
 
  Finished reading input file 'control.in'.
 
------------------------------------------------------------


------------------------------------------------------------
          Reading geometry description geometry.in.
------------------------------------------------------------
  | The smallest distance between any two atoms is         1.53260295 AA.
  | The first atom of this pair is atom number                     11 .
  | The second atom of this pair is atom number                    15 .
  | Wigner-Seitz cell of the first atom image           0     0     0 .
  | (The Wigner-Seitz cell of the second atom is 0 0 0  by definition.)

  Symmetry information by spglib:
  | Precision set to  0.1E-04
  | Number of Operations  : 8
  | Space group           : 62
  | International         : Pnma     O
  | Schoenflies           : D2h^16
  Input structure read successfully.
  The structure contains       28 atoms,  and a total of        304.000 electrons.

  Input geometry:
  | Unit cell:
  |       10.34800000        0.00000000        0.00000000
  |        0.00000000        6.01810000        0.00000000
  |        0.00000000        0.00000000        4.69968000
  | Atomic structure:
  |       Atom                x [A]            y [A]            z [A]
  |    1: Species Li            5.17400000       -0.00000000        2.34984000
  |    2: Species Li           -0.00000000        3.00905001        0.00000000
  |    3: Species Li            5.17400000        3.00905000        2.34984000
  |    4: Species Li            0.00000000        0.00000001        0.00000000
  |    5: Species Fe            7.96517175        1.50452499        2.40002754
  |    6: Species Fe            2.79117176        1.50452500        4.64949245
  |    7: Species Fe            2.38282824        4.51357501        2.29965246
  |    8: Species Fe            7.55682824        4.51357500        0.05018754
  |    9: Species P             6.17947059        1.50452500        0.39156969
  |   10: Species P             1.00547060        1.50452501        1.95827031
  |   11: Species P             4.16852941        4.51357499        4.30811031
  |   12: Species P             9.34252941        4.51357500        2.74140969
  |   13: Species O             6.25800179        1.50452499        3.56066005
  |   14: Species O             1.08400179        1.50452500        3.48885995
  |   15: Species O             4.08999821        4.51357500        1.13901995
  |   16: Species O             9.26399821        4.51357500        1.21082005
  |   17: Species O             9.90090211        1.50452499        1.43829783
  |   18: Species O             4.72690211        1.50452500        0.91154218
  |   19: Species O             0.44709789        4.51357501        3.26138217
  |   20: Species O             5.62109789        4.51357500        3.78813782
  |   21: Species O             6.90557067        0.28090155        1.06569348
  |   22: Species O             1.73157066        2.72814846        1.28414652
  |   23: Species O             3.44242933        3.28995154        3.63398652
  |   24: Species O             8.61642933        5.73719844        3.41553348
  |   25: Species O             3.44242933        5.73719845        3.63398652
  |   26: Species O             8.61642934        3.28995154        3.41553347
  |   27: Species O             6.90557067        2.72814845        1.06569348
  |   28: Species O             1.73157068        0.28090156        1.28414652

  Lattice parameters for 3D lattice (in Angstroms) :    10.348000    6.018100    4.699680
  Angle(s) between unit vectors (in degrees)       :    90.000000   90.000000   90.000000


  Quantities derived from the lattice vectors:
  | Reciprocal lattice vector 1:  0.607188  0.000000  0.000000
  | Reciprocal lattice vector 2:  0.000000  1.044048  0.000000
  | Reciprocal lattice vector 3:  0.000000  0.000000  1.336939
  | Unit cell volume                               :   0.292674E+03  A^3

  Fractional coordinates:
                         L1                L2                L3
       atom_frac         0.50000000       -0.00000000        0.50000000  Li
       atom_frac        -0.00000000        0.50000000        0.00000000  Li
       atom_frac         0.50000000        0.50000000        0.50000000  Li
       atom_frac         0.00000000        0.00000000        0.00000000  Li
       atom_frac         0.76973055        0.25000000        0.51067893  Fe
       atom_frac         0.26973055        0.25000000        0.98932107  Fe
       atom_frac         0.23026945        0.75000000        0.48932107  Fe
       atom_frac         0.73026945        0.75000000        0.01067893  Fe
       atom_frac         0.59716569        0.25000000        0.08331837  P
       atom_frac         0.09716569        0.25000000        0.41668163  P
       atom_frac         0.40283431        0.75000000        0.91668163  P
       atom_frac         0.90283431        0.75000000        0.58331837  P
       atom_frac         0.60475472        0.25000000        0.75763883  O
       atom_frac         0.10475472        0.25000000        0.74236117  O
       atom_frac         0.39524528        0.75000000        0.24236117  O
       atom_frac         0.89524528        0.75000000        0.25763883  O
       atom_frac         0.95679379        0.25000000        0.30604165  O
       atom_frac         0.45679379        0.25000000        0.19395835  O
       atom_frac         0.04320621        0.75000000        0.69395835  O
       atom_frac         0.54320621        0.75000000        0.80604165  O
       atom_frac         0.66733385        0.04667612        0.22675873  O
       atom_frac         0.16733385        0.45332388        0.27324127  O
       atom_frac         0.33266615        0.54667612        0.77324127  O
       atom_frac         0.83266615        0.95332388        0.72675873  O
       atom_frac         0.33266615        0.95332388        0.77324127  O
       atom_frac         0.83266615        0.54667612        0.72675873  O
       atom_frac         0.66733385        0.45332388        0.22675873  O
       atom_frac         0.16733385        0.04667612        0.27324127  O

 
  Finished reading input file 'control.in'.
 

------------------------------------------------------------
          Reading geometry description geometry.in.
------------------------------------------------------------
 
  Consistency checks for stacksize environment parameter are next.
 
  | Maximum stacksize for task 0: unlimited
  | Maximum stacksize for task 1: unlimited
  | Maximum stacksize for task 2: unlimited
  | Maximum stacksize for task 3: unlimited
  | Maximum stacksize for task 4: unlimited
  | Maximum stacksize for task 5: unlimited
  | Maximum stacksize for task 6: unlimited
  | Maximum stacksize for task 7: unlimited
  | Maximum stacksize for task 8: unlimited
  | Maximum stacksize for task 9: unlimited
  | Maximum stacksize for task 10: unlimited
  | Maximum stacksize for task 11: unlimited
  | Maximum stacksize for task 12: unlimited
  | Maximum stacksize for task 13: unlimited
  | Maximum stacksize for task 14: unlimited
  | Maximum stacksize for task 15: unlimited
  | Maximum stacksize for task 16: unlimited
  | Maximum stacksize for task 17: unlimited
  | Maximum stacksize for task 18: unlimited
  | Maximum stacksize for task 19: unlimited
  | Maximum stacksize for task 20: unlimited
  | Maximum stacksize for task 21: unlimited
  | Maximum stacksize for task 22: unlimited
  | Maximum stacksize for task 23: unlimited
  | Maximum stacksize for task 24: unlimited
  | Maximum stacksize for task 25: unlimited
  | Maximum stacksize for task 26: unlimited
  | Maximum stacksize for task 27: unlimited
  | Maximum stacksize for task 28: unlimited
  | Maximum stacksize for task 29: unlimited
  | Maximum stacksize for task 30: unlimited
  | Maximum stacksize for task 31: unlimited
  | Maximum stacksize for task 32: unlimited
  | Maximum stacksize for task 33: unlimited
  | Maximum stacksize for task 34: unlimited
  | Maximum stacksize for task 35: unlimited
  | Maximum stacksize for task 36: unlimited
  | Maximum stacksize for task 37: unlimited
  | Maximum stacksize for task 38: unlimited
  | Maximum stacksize for task 39: unlimited
  | Maximum stacksize for task 40: unlimited
  | Maximum stacksize for task 41: unlimited
  | Maximum stacksize for task 42: unlimited
  | Maximum stacksize for task 43: unlimited
  | Maximum stacksize for task 44: unlimited
  | Maximum stacksize for task 45: unlimited
  | Maximum stacksize for task 46: unlimited
  | Maximum stacksize for task 47: unlimited
  | Maximum stacksize for task 48: unlimited
  | Maximum stacksize for task 49: unlimited
  | Maximum stacksize for task 50: unlimited
  | Maximum stacksize for task 51: unlimited
  | Maximum stacksize for task 52: unlimited
  | Maximum stacksize for task 53: unlimited
  | Maximum stacksize for task 54: unlimited
  | Maximum stacksize for task 55: unlimited
  | Maximum stacksize for task 56: unlimited
  | Maximum stacksize for task 57: unlimited
  | Maximum stacksize for task 58: unlimited
  | Maximum stacksize for task 59: unlimited
  | Maximum stacksize for task 60: unlimited
  | Maximum stacksize for task 61: unlimited
  | Maximum stacksize for task 62: unlimited
  | Maximum stacksize for task 63: unlimited
  | Maximum stacksize for task 64: unlimited
  | Maximum stacksize for task 65: unlimited
  | Maximum stacksize for task 66: unlimited
  | Maximum stacksize for task 67: unlimited
  | Maximum stacksize for task 68: unlimited
  | Maximum stacksize for task 69: unlimited
  | Maximum stacksize for task 70: unlimited
  | Maximum stacksize for task 71: unlimited
  | Maximum stacksize for task 72: unlimited
  | Maximum stacksize for task 73: unlimited
  | Maximum stacksize for task 74: unlimited
  | Maximum stacksize for task 75: unlimited
  | Maximum stacksize for task 76: unlimited
  | Maximum stacksize for task 77: unlimited
  | Maximum stacksize for task 78: unlimited
  | Maximum stacksize for task 79: unlimited
  | Maximum stacksize for task 80: unlimited
  | Maximum stacksize for task 81: unlimited
  | Maximum stacksize for task 82: unlimited
  | Maximum stacksize for task 83: unlimited
  | Maximum stacksize for task 84: unlimited
  | Maximum stacksize for task 85: unlimited
  | Maximum stacksize for task 86: unlimited
  | Maximum stacksize for task 87: unlimited
  | Maximum stacksize for task 88: unlimited
  | Maximum stacksize for task 89: unlimited
  | Maximum stacksize for task 90: unlimited
  | Maximum stacksize for task 91: unlimited
  | Maximum stacksize for task 92: unlimited
  | Maximum stacksize for task 93: unlimited
  | Maximum stacksize for task 94: unlimited
  | Maximum stacksize for task 95: unlimited
  | Maximum stacksize for task 96: unlimited
  | Maximum stacksize for task 97: unlimited
  | Maximum stacksize for task 98: unlimited
  | Maximum stacksize for task 99: unlimited
  | Maximum stacksize for task 100: unlimited
  | Maximum stacksize for task 101: unlimited
  | Maximum stacksize for task 102: unlimited
  | Maximum stacksize for task 103: unlimited
  | Maximum stacksize for task 104: unlimited
  | Maximum stacksize for task 105: unlimited
  | Maximum stacksize for task 106: unlimited
  | Maximum stacksize for task 107: unlimited
  | Maximum stacksize for task 108: unlimited
  | Maximum stacksize for task 109: unlimited
  | Maximum stacksize for task 110: unlimited
  | Maximum stacksize for task 111: unlimited
  | Maximum stacksize for task 112: unlimited
  | Maximum stacksize for task 113: unlimited
  | Maximum stacksize for task 114: unlimited
  | Maximum stacksize for task 115: unlimited
  | Maximum stacksize for task 116: unlimited
  | Maximum stacksize for task 117: unlimited
  | Maximum stacksize for task 118: unlimited
  | Maximum stacksize for task 119: unlimited
  | Current stacksize for task 0: unlimited
  | Current stacksize for task 1: unlimited
  | Current stacksize for task 2: unlimited
  | Current stacksize for task 3: unlimited
  | Current stacksize for task 4: unlimited
  | Current stacksize for task 5: unlimited
  | Current stacksize for task 6: unlimited
  | Current stacksize for task 7: unlimited
  | Current stacksize for task 8: unlimited
  | Current stacksize for task 9: unlimited
  | Current stacksize for task 10: unlimited
  | Current stacksize for task 11: unlimited
  | Current stacksize for task 12: unlimited
  | Current stacksize for task 13: unlimited
  | Current stacksize for task 14: unlimited
  | Current stacksize for task 15: unlimited
  | Current stacksize for task 16: unlimited
  | Current stacksize for task 17: unlimited
  | Current stacksize for task 18: unlimited
  | Current stacksize for task 19: unlimited
  | Current stacksize for task 20: unlimited
  | Current stacksize for task 21: unlimited
  | Current stacksize for task 22: unlimited
  | Current stacksize for task 23: unlimited
  | Current stacksize for task 24: unlimited
  | Current stacksize for task 25: unlimited
  | Current stacksize for task 26: unlimited
  | Current stacksize for task 27: unlimited
  | Current stacksize for task 28: unlimited
  | Current stacksize for task 29: unlimited
  | Current stacksize for task 30: unlimited
  | Current stacksize for task 31: unlimited
  | Current stacksize for task 32: unlimited
  | Current stacksize for task 33: unlimited
  | Current stacksize for task 34: unlimited
  | Current stacksize for task 35: unlimited
  | Current stacksize for task 36: unlimited
  | Current stacksize for task 37: unlimited
  | Current stacksize for task 38: unlimited
  | Current stacksize for task 39: unlimited
  | Current stacksize for task 40: unlimited
  | Current stacksize for task 41: unlimited
  | Current stacksize for task 42: unlimited
  | Current stacksize for task 43: unlimited
  | Current stacksize for task 44: unlimited
  | Current stacksize for task 45: unlimited
  | Current stacksize for task 46: unlimited
  | Current stacksize for task 47: unlimited
  | Current stacksize for task 48: unlimited
  | Current stacksize for task 49: unlimited
  | Current stacksize for task 50: unlimited
  | Current stacksize for task 51: unlimited
  | Current stacksize for task 52: unlimited
  | Current stacksize for task 53: unlimited
  | Current stacksize for task 54: unlimited
  | Current stacksize for task 55: unlimited
  | Current stacksize for task 56: unlimited
  | Current stacksize for task 57: unlimited
  | Current stacksize for task 58: unlimited
  | Current stacksize for task 59: unlimited
  | Current stacksize for task 60: unlimited
  | Current stacksize for task 61: unlimited
  | Current stacksize for task 62: unlimited
  | Current stacksize for task 63: unlimited
  | Current stacksize for task 64: unlimited
  | Current stacksize for task 65: unlimited
  | Current stacksize for task 66: unlimited
  | Current stacksize for task 67: unlimited
  | Current stacksize for task 68: unlimited
  | Current stacksize for task 69: unlimited
  | Current stacksize for task 70: unlimited
  | Current stacksize for task 71: unlimited
  | Current stacksize for task 72: unlimited
  | Current stacksize for task 73: unlimited
  | Current stacksize for task 74: unlimited
  | Current stacksize for task 75: unlimited
  | Current stacksize for task 76: unlimited
  | Current stacksize for task 77: unlimited
  | Current stacksize for task 78: unlimited
  | Current stacksize for task 79: unlimited
  | Current stacksize for task 80: unlimited
  | Current stacksize for task 81: unlimited
  | Current stacksize for task 82: unlimited
  | Current stacksize for task 83: unlimited
  | Current stacksize for task 84: unlimited
  | Current stacksize for task 85: unlimited
  | Current stacksize for task 86: unlimited
  | Current stacksize for task 87: unlimited
  | Current stacksize for task 88: unlimited
  | Current stacksize for task 89: unlimited
  | Current stacksize for task 90: unlimited
  | Current stacksize for task 91: unlimited
  | Current stacksize for task 92: unlimited
  | Current stacksize for task 93: unlimited
  | Current stacksize for task 94: unlimited
  | Current stacksize for task 95: unlimited
  | Current stacksize for task 96: unlimited
  | Current stacksize for task 97: unlimited
  | Current stacksize for task 98: unlimited
  | Current stacksize for task 99: unlimited
  | Current stacksize for task 100: unlimited
  | Current stacksize for task 101: unlimited
  | Current stacksize for task 102: unlimited
  | Current stacksize for task 103: unlimited
  | Current stacksize for task 104: unlimited
  | Current stacksize for task 105: unlimited
  | Current stacksize for task 106: unlimited
  | Current stacksize for task 107: unlimited
  | Current stacksize for task 108: unlimited
  | Current stacksize for task 109: unlimited
  | Current stacksize for task 110: unlimited
  | Current stacksize for task 111: unlimited
  | Current stacksize for task 112: unlimited
  | Current stacksize for task 113: unlimited
  | Current stacksize for task 114: unlimited
  | Current stacksize for task 115: unlimited
  | Current stacksize for task 116: unlimited
  | Current stacksize for task 117: unlimited
  | Current stacksize for task 118: unlimited
  | Current stacksize for task 119: unlimited
 
  Consistency checks for the contents of control.in are next.
 
  MPI_IN_PLACE appears to work with this MPI implementation.
  | Keeping use_mpi_in_place .true. (see manual).
  Target number of points in a grid batch is not set. Defaulting to  100
  Method for grid partitioning is not set. Defaulting to parallel hash+maxmin partitioning.
  Batch size limit is not set. Defaulting to    200
  By default, will store active basis functions for each batch.
  If in need of memory, prune_basis_once .false. can be used to disable this option.
  communication_type for Hartree potential was not specified.
  Defaulting to calc_hartree .
  Defaulting to Pulay charge density mixer.
  Pulay mixer: Number of relevant iterations not set.
  Defaulting to    8 iterations.
  Pulay mixer: Number of initial linear mixing iterations not set.
  Defaulting to    0 iterations.
  Work space size for distributed Hartree potential not set.
  Defaulting to   0.200000E+03 MB.
  Mixing parameter for charge density mixing has not been set.
  Using default: charge_mix_param =     0.0500.
  The mixing parameter will be adjusted in iteration number     2 of the first full s.c.f. cycle only.
  Algorithm-dependent basis array size parameters:
  | n_max_pulay                         :        8
  Maximum number of self-consistency iterations not provided.
  Presetting  1000 iterations.
  Presetting      1001 iterations before the initial mixing cycle
  is restarted anyway using the sc_init_iter criterion / keyword.
  Presetting a factor      1.000 between actual scf density residual
  and density convergence criterion sc_accuracy_rho below which sc_init_iter
  takes no effect.
  No maximum number of relaxation steps, defaulting to     1000
  Default initial Hessian is Lindh matrix (thres = 15.00) plus  0.200000E+01 eV/A^2 times unity.
  No maximum energy tolerance for TRM/BFGS moves, defaulting to   0.100000E-02
  Maximum energy tolerance by which TRM/BFGS trajectory may increase over multiple steps:   0.300000E-02
  No harmonic length scale. Defaulting to   0.250000E-01 A.
  No trust radius initializer. Defaulting to   0.200000E+00 A.
  Forces evaluation will include force correction term due to incomplete self-consistency (default).
  Handling of forces: Unphysical translation and rotation will be removed from forces.
  No accuracy limit for integral partition fn. given. Defaulting to  0.1000E-14.
  No threshold value for u(r) in integrations given. Defaulting to  0.1000E-05.
  No accuracy for occupation numbers given. Defaulting to  0.1000E-12.
  No threshold value for occupation numbers given. Defaulting to  0.0000E+00.
  No accuracy for fermi level given. Defaulting to  0.1000E-19.
  Maximum # of iterations to find E_F not set. Defaulting to  200.
  Preferred method for the eigenvalue solver ('KS_method') not specified in 'control.in'.
  Defaulting to serial version, LAPACK (via ELSI), since more k-points than CPUs available.
  Will not use alltoall communication since running on < 1024 CPUs.
  Threshold for basis singularities not set.
  Default threshold for basis singularities:  0.1000E-04
  partition_type (choice of integration weights) for integrals was not specified.
  | Using a version of the partition function of Stratmann and coworkers ('stratmann_sparse').
  | At each grid point, the set of atoms used to build the partition table is smoothly restricted to
  | only those atoms whose free-atom density would be non-zero at that grid point.
  Partitioning for Hartree potential was not defined. Using partition_type for integrals.
  | Adjusted default value of keyword multip_moments_threshold to:       0.10000000E-11
  | This value may affect high angular momentum components of the Hartree potential in periodic systems.
  Angular momentum expansion for Kerker preconditioner not set explicitly.
  | Using default value of   0
  No explicit requirement for turning off preconditioner.
  | By default, it will be turned off when the charge convergence reaches
  | sc_accuracy_rho  =   0.100000E-05
  | sc_accuracy_eev  =   0.100000E-02
  | sc_accuracy_etot =   0.100000E-05
  No special mixing parameter while Kerker preconditioner is on.
  Using default: charge_mix_param =     0.0500.
  No q(lm)/r^(l+1) cutoff set for long-range Hartree potential.
  | Using default value of  0.100000E-09 .
  | Verify using the multipole_threshold keyword.
  Defaulting to new monopole extrapolation.
  Density update method: automatic selection selected.
  Using density matrix based charge density update.
 * Warning: DFT+U requires using density matrix based charge density update.
  Using density matrix based charge density update.
  Using packed matrix style: index .
  Geometry relaxation: A file "geometry.in.next_step" is written out by default after each step.
  | This file contains the geometry of the current relaxation step as well as
  | the current Hessian matrix needed to restart the relaxation algorithm.
  | If you do not want part or all of this information, use the keywords
  | "write_restart_geometry" or "hessian_to_restart_geometry" to switch the output off.
  Defaulting to use time-reversal symmetry for k-point grid.
  Charge integration errors on the 3D integration grid will be compensated
  by explicit normalization and distribution of residual charges.
  Use the "compensate_multipole_errors" flag to change this behaviour.
  Set 'collect_eigenvectors' to be '.true.' for all serial calculations. This is mandatory.
  Set 'collect_eigenvectors' to be '.true.' for KS_method lapack_fast and serial.
 
  Consistency checks for the contents of geometry.in are next.
 

  Range separation radius for Ewald summation (hartree_convergence_parameter):      3.03029936 bohr.
  Number of empty states per atom not set in control.in - providing a guess from actual geometry.
  | Total number of empty states used during s.c.f. cycle:       88
  If you use a very high smearing, use empty_states (per atom!) in control.in to increase this value.

  Structure-dependent array size parameters: 
  | Maximum number of distinct radial functions  :       31
  | Maximum number of basis functions            :      492
  | Number of Kohn-Sham states (occupied + empty):      240
------------------------------------------------------------

------------------------------------------------------------
          Preparing all fixed parts of the calculation.
------------------------------------------------------------
  Determining machine precision:
    2.225073858507201E-308
  Setting up grids for atomic and cluster calculations.

  Creating wave function, potential, and density for free atoms.

  Species: Li

  List of occupied orbitals and eigenvalues:
    n    l              occ      energy [Ha]    energy [eV]
    1    0           2.0000        -1.849178       -50.3187
    2    0           1.0000        -0.083380        -2.2689


  Species: Fe

  List of occupied orbitals and eigenvalues:
    n    l              occ      energy [Ha]    energy [eV]
    1    0           2.0000      -258.761464     -7041.2577
    2    0           2.0000       -30.084042      -818.6284
    3    0           2.0000        -3.428472       -93.2935
    4    0           2.0000        -0.194146        -5.2830
    2    1           6.0000       -25.669194      -698.4943
    3    1           6.0000        -2.193937       -59.7001
    3    2           6.0000        -0.277182        -7.5425


  Species: P

  List of occupied orbitals and eigenvalues:
    n    l              occ      energy [Ha]    energy [eV]
    1    0           2.0000       -76.485822     -2081.2851
    2    0           2.0000        -6.358414      -173.0212
    3    0           2.0000        -0.510621       -13.8947
    2    1           6.0000        -4.570565      -124.3714
    3    1           3.0000        -0.201132        -5.4731


  Species: O

  List of occupied orbitals and eigenvalues:
    n    l              occ      energy [Ha]    energy [eV]
    1    0           2.0000       -18.786109      -511.1960
    2    0           2.0000        -0.872635       -23.7456
    2    1           4.0000        -0.337687        -9.1889


  Adding cutoff potential to free-atom effective potential.
  Creating fixed part of basis set: Ionic, confined, hydrogenic.
 
  Li                   hydrogenic:
 
  List of hydrogenic basis orbitals: 
    n    l      effective z      eigenvalue [eV]  inner max. [A]     outer max. [A]     outer radius [A]   
    2    1         1.600000        -8.6069           1.303334           1.303334           4.591005
    2    0         2.000000       -13.5631           0.203259           1.385485           4.591005
    3    2         2.600000        -9.9241           1.769240           1.769240           4.591005
 
 
  Fe                   ion:

  List of free ionic orbitals and eigenvalues:
    n    l      energy [Ha]    energy [eV]
    1    0      -259.738870     -7067.8543
    2    0       -31.072370      -845.5222
    3    0        -4.377998      -119.1314
    4    0        -0.834552       -22.7093
    2    1       -26.655733      -725.3394
    3    1        -3.135976       -85.3342
    3    2        -1.182709       -32.1831


  List of ionic basis orbitals and eigenvalues:
    n    l      energy [Ha]    energy [eV]    outer radius [A]
    4    0        -0.834492       -22.7077       4.554938

 
  Fe                   hydrogenic:
 
  List of hydrogenic basis orbitals: 
    n    l      effective z      eigenvalue [eV]  inner max. [A]     outer max. [A]     outer radius [A]   
    4    3         9.400000       -75.1370           0.896093           0.896093           3.791786
    2    1         2.200000       -16.4552           0.964292           0.964292           4.554938
    3    2         3.100000       -14.4291           1.515830           1.515830           4.610964
 
 
  P                    ion:

  List of free ionic orbitals and eigenvalues:
    n    l      energy [Ha]    energy [eV]
    1    0       -77.432579     -2107.0477
    2    0        -7.277768      -198.0382
    3    0        -1.273472       -34.6529
    2    1        -5.491497      -149.4312
    3    1        -0.917378       -24.9631


  List of ionic basis orbitals and eigenvalues:
    n    l      energy [Ha]    energy [eV]    outer radius [A]
    3    2        -0.460093       -12.5198       4.554583
    3    1        -0.917353       -24.9625       4.337222
    3    0        -1.273453       -34.6524       3.885335

 
  P                    hydrogenic:
 
  List of hydrogenic basis orbitals: 
    n    l      effective z      eigenvalue [eV]  inner max. [A]     outer max. [A]     outer radius [A]   
    4    3         6.200000       -32.6778           1.357793           1.357793           4.554583
 
 
  O                    hydrogenic:
 
  List of hydrogenic basis orbitals: 
    n    l      effective z      eigenvalue [eV]  inner max. [A]     outer max. [A]     outer radius [A]   
    2    1         1.800000       -10.9749           1.164242           1.164242           4.578029
    3    2         7.600000       -87.3180           0.624125           0.624125           3.251020
    3    0         6.400000       -61.9207           0.061167           1.081902           4.001998
 
  Creating atomic-like basis functions for current effective potential.

  Species Li                  :

  List of atomic basis orbitals and eigenvalues:
    n    l      energy [Ha]    energy [eV]    outer radius [A]
    1    0        -1.849178       -50.3187       4.062706
    2    0        -0.083380        -2.2689       4.591005


  Species Fe                  :

  List of atomic basis orbitals and eigenvalues:
    n    l      energy [Ha]    energy [eV]    outer radius [A]
    1    0      -258.761464     -7041.2577       0.409790
    2    0       -30.084042      -818.6284       1.216422
    3    0        -3.428472       -93.2935       3.438507
    4    0        -0.194146        -5.2830       4.610964
    2    1       -25.669194      -698.4943       1.277383
    3    1        -2.193937       -59.7001       3.981813
    3    2        -0.277182        -7.5425       4.499593


  Species P                   :

  List of atomic basis orbitals and eigenvalues:
    n    l      energy [Ha]    energy [eV]    outer radius [A]
    1    0       -76.485822     -2081.2851       0.736837
    2    0        -6.358414      -173.0212       2.532824
    3    0        -0.510621       -13.8947       4.499242
    2    1        -4.570565      -124.3714       2.862183
    3    1        -0.201132        -5.4731       4.554583


  Species O                   :

  List of atomic basis orbitals and eigenvalues:
    n    l      energy [Ha]    energy [eV]    outer radius [A]
    1    0       -18.786109      -511.1960       1.433179
    2    0        -0.872635       -23.7456       4.413171
    2    1        -0.337687        -9.1889       4.522403

  Assembling full basis from fixed parts.
 * Warning - Since '+U' treatment was requested,
 * the basis-dependent cutoff is turned off automatically.
  | Species Li :   atomic orbital   1 s accepted.
  | Species Li :   atomic orbital   2 s accepted.
  | Species Li :    hydro orbital   2 s accepted.
  | Species Li :    hydro orbital   2 p accepted.
  | Species Li :    hydro orbital   3 d accepted.
 * Warning - Since '+U' treatment was requested,
 * the basis-dependent cutoff is turned off automatically.
  | Species Fe :   atomic orbital   1 s accepted.
  | Species Fe :   atomic orbital   2 s accepted.
  | Species Fe :   atomic orbital   3 s accepted.
  | Species Fe :   atomic orbital   4 s accepted.
  | Species Fe :    ionic orbital   4 s accepted.
  | Species Fe :   atomic orbital   2 p accepted.
  | Species Fe :   atomic orbital   3 p accepted.
  | Species Fe :    hydro orbital   2 p accepted.
  | Species Fe :   atomic orbital   3 d accepted.
  | Species Fe :    hydro orbital   3 d accepted.
  | Species Fe :    hydro orbital   4 f accepted.
 * Warning - Since '+U' treatment was requested,
 * the basis-dependent cutoff is turned off automatically.
  | Species P :   atomic orbital   1 s accepted.
  | Species P :   atomic orbital   2 s accepted.
  | Species P :   atomic orbital   3 s accepted.
  | Species P :    ionic orbital   3 s accepted.
  | Species P :   atomic orbital   2 p accepted.
  | Species P :   atomic orbital   3 p accepted.
  | Species P :    ionic orbital   3 p accepted.
  | Species P :    ionic orbital   3 d accepted.
  | Species P :    hydro orbital   4 f accepted.
 * Warning - Since '+U' treatment was requested,
 * the basis-dependent cutoff is turned off automatically.
  | Species O :   atomic orbital   1 s accepted.
  | Species O :   atomic orbital   2 s accepted.
  | Species O :    hydro orbital   3 s accepted.
  | Species O :   atomic orbital   2 p accepted.
  | Species O :    hydro orbital   2 p accepted.
  | Species O :    hydro orbital   3 d accepted.
 
  Basis size parameters after reduction:
  | Total number of radial functions:       31
  | Total number of basis functions :      492
 
  Per-task memory consumption for arrays in subroutine allocate_ext:
  |          11.102200MB.
  Testing on-site integration grid accuracy.
  |  Species  Function  <phi|h_atom|phi> (log., in eV)  <phi|h_atom|phi> (rad., in eV)
           1        1                -50.3186999132                -50.3186979427
           1        2                 -2.3071316168                 -2.3037320941
           1        3                 15.7362313817                 15.7331874732
           1        4                  0.3262086529                  0.3282071330
           1        5                  6.2738034359                  6.2759396895
           2        6              -7041.2577030496              -7041.2519560668
           2        7               -818.6284329791               -818.6283709976
           2        8                -93.2934736379                -93.2934724211
           2        9                 -5.2930696844                 -5.3068968178
           2       10                  7.1071043190                  6.9971523260 ***
           2       11               -698.4943178612               -698.4943174879
           2       12                -59.7000660024                -59.7000658913
           2       13                  1.9401338083                  1.9363784399
           2       14                 -7.5426235719                 -7.5427918004
           2       15                  7.1731035101                  7.1394720912 ***
           2       16                 40.2111838268                 40.2112200346
           3       17              -2081.2851194197              -2081.2842153296
           3       18               -173.0212409578               -173.0212353627
           3       19                -13.8948940790                -13.8951694077
           3       20                  6.0986398359                  6.1045326113
           3       21               -124.3714114519               -124.3714114195
           3       22                 -5.4768307239                 -5.4826893875
           3       23                  6.9100777494                  6.8298756142 ***
           3       24                  5.2642353314                  5.2564284336
           3       25                 19.3705556486                 19.3659772111
           4       26               -511.1960429777               -511.1959399133
           4       27                -23.7455964041                -23.7455972542
           4       28                 17.3746964700                 17.3748057881
           4       29                 -9.1890598667                 -9.1892026751
           4       30                  8.1915160719                  8.1720639763
           4       31                 45.8005976646                 45.8005620229
 * Note: Onsite integrals marked "***" above are less accurate than
 * onsite_accuracy_threshold =    0.03000 eV. Usually, this is harmless.
 * When in doubt, tighten the "radial" and/or "radial_multiplier" flags to check.

  Preparing densities etc. for the partition functions (integrals / Hartree potential).

  Preparations completed.
  max(cpu_time)          :      0.810 s.
  Wall clock time (cpu1) :      0.813 s.
------------------------------------------------------------

------------------------------------------------------------
          Begin self-consistency loop: Initialization.

          Date     :  20240813, Time     :  184810.989
------------------------------------------------------------

  Initializing index lists of integration centers etc. from given atomic structure:
  Mapping all atomic coordinates to central unit cell.

  Initializing the k-points
  Using symmetry for reducing the k-points
  | k-points reduced from:      126 to       64
  | Number of k-points                             :        64
  The eigenvectors in the calculations are COMPLEX.
  | K-points in task   0:         0
  | K-points in task   1:         1
  | K-points in task   2:         1
  | K-points in task   3:         1
  | K-points in task   4:         1
  | K-points in task   5:         1
  | K-points in task   6:         1
  | K-points in task   7:         1
  | K-points in task   8:         1
  | K-points in task   9:         1
  | K-points in task  10:         1
  | K-points in task  11:         1
  | K-points in task  12:         1
  | K-points in task  13:         1
  | K-points in task  14:         1
  | K-points in task  15:         1
  | K-points in task  16:         1
  | K-points in task  17:         1
  | K-points in task  18:         1
  | K-points in task  19:         1
  | K-points in task  20:         1
  | K-points in task  21:         1
  | K-points in task  22:         1
  | K-points in task  23:         1
  | K-points in task  24:         1
  | K-points in task  25:         1
  | K-points in task  26:         1
  | K-points in task  27:         1
  | K-points in task  28:         1
  | K-points in task  29:         1
  | K-points in task  30:         1
  | K-points in task  31:         1
  | K-points in task  32:         1
  | K-points in task  33:         1
  | K-points in task  34:         1
  | K-points in task  35:         1
  | K-points in task  36:         1
  | K-points in task  37:         1
  | K-points in task  38:         1
  | K-points in task  39:         1
  | K-points in task  40:         1
  | K-points in task  41:         1
  | K-points in task  42:         1
  | K-points in task  43:         1
  | K-points in task  44:         1
  | K-points in task  45:         1
  | K-points in task  46:         1
  | K-points in task  47:         1
  | K-points in task  48:         1
  | K-points in task  49:         1
  | K-points in task  50:         1
  | K-points in task  51:         1
  | K-points in task  52:         1
  | K-points in task  53:         1
  | K-points in task  54:         1
  | K-points in task  55:         1
  | K-points in task  56:         1
  | K-points in task  57:         1
  | K-points in task  58:         1
  | K-points in task  59:         1
  | K-points in task  60:         1
  | K-points in task  61:         1
  | K-points in task  62:         1
  | K-points in task  63:         1
  | K-points in task  64:         1
  | K-points in task  65:         0
  | K-points in task  66:         0
  | K-points in task  67:         0
  | K-points in task  68:         0
  | K-points in task  69:         0
  | K-points in task  70:         0
  | K-points in task  71:         0
  | K-points in task  72:         0
  | K-points in task  73:         0
  | K-points in task  74:         0
  | K-points in task  75:         0
  | K-points in task  76:         0
  | K-points in task  77:         0
  | K-points in task  78:         0
  | K-points in task  79:         0
  | K-points in task  80:         0
  | K-points in task  81:         0
  | K-points in task  82:         0
  | K-points in task  83:         0
  | K-points in task  84:         0
  | K-points in task  85:         0
  | K-points in task  86:         0
  | K-points in task  87:         0
  | K-points in task  88:         0
  | K-points in task  89:         0
  | K-points in task  90:         0
  | K-points in task  91:         0
  | K-points in task  92:         0
  | K-points in task  93:         0
  | K-points in task  94:         0
  | K-points in task  95:         0
  | K-points in task  96:         0
  | K-points in task  97:         0
  | K-points in task  98:         0
  | K-points in task  99:         0
  | K-points in task 100:         0
  | K-points in task 101:         0
  | K-points in task 102:         0
  | K-points in task 103:         0
  | K-points in task 104:         0
  | K-points in task 105:         0
  | K-points in task 106:         0
  | K-points in task 107:         0
  | K-points in task 108:         0
  | K-points in task 109:         0
  | K-points in task 110:         0
  | K-points in task 111:         0
  | K-points in task 112:         0
  | K-points in task 113:         0
  | K-points in task 114:         0
  | K-points in task 115:         0
  | K-points in task 116:         0
  | K-points in task 117:         0
  | K-points in task 118:         0
  | K-points in task 119:         0
  | Number of basis functions in the Hamiltonian integrals :      5133
  | Number of basis functions in a single unit cell        :       492
  | Number of centers in hartree potential         :      1757
  | Number of centers in hartree multipole         :      1200
  | Number of centers in electron density summation:       909
  | Number of centers in basis integrals           :       977
  | Number of centers in integrals                 :       391
  | Number of centers in hamiltonian               :       923
  | Consuming         64 KiB for k_phase.
  | Number of super-cells (origin) [n_cells]                     :         315
  | Number of super-cells (after PM_index) [n_cells]             :          64
  | Number of super-cells in hamiltonian [n_cells_in_hamiltonian]:          64
  | Size of matrix packed + index [n_hamiltonian_matrix_size] :     1046249

  Initializing relaxation algorithms.
  Finished initialization of distributed Hessian storage.
  | Global dimension:        84
  | BLACS block size:         1
  | Number of workers:       84

  | Estimated reciprocal-space cutoff momentum G_max:         3.11736995 bohr^-1 .
  | Reciprocal lattice points for long-range Hartree potential:    1004
  Partitioning the integration grid into batches with parallel hashing+maxmin method.
  | Number of batches:     2325
  | Maximal batch size:     115
  | Minimal batch size:      49
  | Average batch size:      77.182
  | Standard deviation of batch sizes:      13.586

  Integration load balanced across   120 MPI tasks.
  Work distribution over tasks is as follows:
  Task     0 has       1453 integration points.
  Task     1 has       1480 integration points.
  Task     2 has       1545 integration points.
  Task     3 has       1458 integration points.
  Task     4 has       1496 integration points.
  Task     5 has       1453 integration points.
  Task     6 has       1498 integration points.
  Task     7 has       1462 integration points.
  Task     8 has       1482 integration points.
  Task     9 has       1548 integration points.
  Task    10 has       1486 integration points.
  Task    11 has       1546 integration points.
  Task    12 has       1545 integration points.
  Task    13 has       1550 integration points.
  Task    14 has       1490 integration points.
  Task    15 has       1490 integration points.
  Task    16 has       1455 integration points.
  Task    17 has       1546 integration points.
  Task    18 has       1456 integration points.
  Task    19 has       1493 integration points.
  Task    20 has       1514 integration points.
  Task    21 has       1464 integration points.
  Task    22 has       1500 integration points.
  Task    23 has       1485 integration points.
  Task    24 has       1456 integration points.
  Task    25 has       1456 integration points.
  Task    26 has       1545 integration points.
  Task    27 has       1467 integration points.
  Task    28 has       1547 integration points.
  Task    29 has       1458 integration points.
  Task    30 has       1544 integration points.
  Task    31 has       1548 integration points.
  Task    32 has       1544 integration points.
  Task    33 has       1455 integration points.
  Task    34 has       1498 integration points.
  Task    35 has       1506 integration points.
  Task    36 has       1548 integration points.
  Task    37 has       1455 integration points.
  Task    38 has       1455 integration points.
  Task    39 has       1501 integration points.
  Task    40 has       1453 integration points.
  Task    41 has       1498 integration points.
  Task    42 has       1488 integration points.
  Task    43 has       1505 integration points.
  Task    44 has       1550 integration points.
  Task    45 has       1453 integration points.
  Task    46 has       1547 integration points.
  Task    47 has       1545 integration points.
  Task    48 has       1546 integration points.
  Task    49 has       1461 integration points.
  Task    50 has       1455 integration points.
[...]
        54            NaN
        55            NaN
        56            NaN
        57            NaN
        58            NaN
        59            NaN
        60            NaN
        61            NaN
        62            NaN
        63            NaN
        64            NaN
        65            NaN
        66            NaN
        67            NaN
        68            NaN
        69            NaN
        70            NaN
        71            NaN
        72            NaN
        73            NaN
        74            NaN
        75            NaN
        76            NaN
        77            NaN
        78            NaN
        79            NaN
        80            NaN
        81            NaN
        82            NaN
        83            NaN
        84            NaN
        85            NaN
        86            NaN
        87            NaN
        88            NaN
        89            NaN
        90            NaN
        91            NaN
        92            NaN
        93            NaN
        94            NaN
        95            NaN
        96            NaN
        97            NaN
        98            NaN
        99            NaN
       100            NaN
       101            NaN
       102            NaN
       103            NaN
       104            NaN
       105            NaN
       106            NaN
       107            NaN
       108            NaN
       109            NaN
       110            NaN
       111            NaN
       112            NaN
       113            NaN
       114            NaN
       115            NaN
       116            NaN
       117            NaN
       118            NaN
       119            NaN
       120            NaN
       121            NaN
       122            NaN
       123            NaN
       124            NaN
       125            NaN
       126            NaN
       127            NaN
       128            NaN
       129            NaN
       130            NaN
       131            NaN
       132            NaN
       133            NaN
       134            NaN
       135            NaN
       136            NaN
       137            NaN
       138            NaN
       139            NaN
       140            NaN
       141            NaN
       142            NaN
       143            NaN
       144            NaN
       145            NaN
       146            NaN
       147            NaN
       148            NaN
       149            NaN
       150            NaN
       151            NaN
       152            NaN
       153            NaN
       154            NaN
       155            NaN
       156            NaN
       157            NaN
       158            NaN
       159            NaN
       160            NaN
       161            NaN
       162            NaN
       163            NaN
       164            NaN
       165            NaN
       166            NaN
       167            NaN
       168            NaN
       169            NaN
       170            NaN
       171            NaN
       172            NaN
       173            NaN
       174            NaN
       175            NaN
       176            NaN
       177            NaN
       178            NaN
       179            NaN
       180            NaN
       181            NaN
       182            NaN
       183            NaN
       184            NaN
       185            NaN
       186            NaN
       187            NaN
       188            NaN
       189            NaN
       190            NaN
       191            NaN
       192            NaN
       193            NaN
       194            NaN
       195            NaN
       196            NaN
       197            NaN
       198            NaN
       199            NaN
       200            NaN
       201            NaN
       202            NaN
       203            NaN
       204            NaN
       205            NaN
       206            NaN
       207            NaN
       208            NaN
       209            NaN
       210            NaN
       211            NaN
       212            NaN
       213            NaN
       214            NaN
       215            NaN
       216            NaN
       217            NaN
       218            NaN
       219            NaN
       220            NaN
       221            NaN
       222            NaN
       223            NaN
       224            NaN
       225            NaN
       226            NaN
       227            NaN
       228            NaN
       229            NaN
       230            NaN
       231            NaN
       232            NaN
       233            NaN
       234            NaN
       235            NaN
       236            NaN
       237            NaN
       238            NaN
       239            NaN
       240            NaN
**Error! elsi_mu_and_occ_normal: Chemical potential not found - please see above for a more detailed error message and output
**Error! elsi_mu_and_occ_normal: Chemical potential not found - please see above for a more detailed error message and output
**Error! elsi_mu_and_occ_normal: Chemical potential not found - please see above for a more detailed error message and output
**Error! elsi_mu_and_occ_normal: Chemical potential not found - please see above for a more detailed error message and output
**Error! elsi_mu_and_occ_normal: Chemical potential not found - please see above for a more detailed error message and output
**Error! elsi_mu_and_occ_normal: Chemical potential not found - please see above for a more detailed error message and output
**Error! elsi_mu_and_occ_normal: Chemical potential not found - please see above for a more detailed error message and output
**Error! elsi_mu_and_occ_normal: Chemical potential not found - please see above for a more detailed error message and output
**Error! elsi_mu_and_occ_normal: Chemical potential not found - please see above for a more detailed error message and output
**Error! elsi_mu_and_occ_normal: Chemical potential not found - please see above for a more detailed error message and output
**Error! elsi_mu_and_occ_normal: Chemical potential not found - please see above for a more detailed error message and output
**Error! elsi_mu_and_occ_normal: Chemical potential not found - please see above for a more detailed error message and output
**Error! elsi_mu_and_occ_normal: Chemical potential not found - please see above for a more detailed error message and output
**Error! elsi_mu_and_occ_normal: Chemical potential not found - please see above for a more detailed error message and output
**Error! elsi_mu_and_occ_normal: Chemical potential not found - please see above for a more detailed error message and output
**Error! elsi_mu_and_occ_normal: Chemical potential not found - please see above for a more detailed error message and output
**Error! elsi_mu_and_occ_normal: Chemical potential not found - please see above for a more detailed error message and output
**Error! elsi_mu_and_occ_normal: Chemical potential not found - please see above for a more detailed error message and output
**Error! elsi_mu_and_occ_normal: Chemical potential not found - please see above for a more detailed error message and output
**Error! elsi_mu_and_occ_normal: Chemical potential not found - please see above for a more detailed error message and output
**Error! elsi_mu_and_occ_normal: Chemical potential not found - please see above for a more detailed error message and output
**Error! elsi_mu_and_occ_normal: Chemical potential not found - please see above for a more detailed error message and output
**Error! elsi_mu_and_occ_normal: Chemical potential not found - please see above for a more detailed error message and output
**Error! elsi_mu_and_occ_normal: Chemical potential not found - please see above for a more detailed error message and output
**Error! elsi_mu_and_occ_normal: Chemical potential not found - please see above for a more detailed error message and output
**Error! elsi_mu_and_occ_normal: Chemical potential not found - please see above for a more detailed error message and output
**Error! elsi_mu_and_occ_normal: Chemical potential not found - please see above for a more detailed error message and output
**Error! elsi_mu_and_occ_normal: Chemical potential not found - please see above for a more detailed error message and output
**Error! elsi_mu_and_occ_normal: Chemical potential not found - please see above for a more detailed error message and output
**Error! elsi_mu_and_occ_normal: Chemical potential not found - please see above for a more detailed error message and output
**Error! elsi_mu_and_occ_normal: Chemical potential not found - please see above for a more detailed error message and output
**Error! elsi_mu_and_occ_normal: Chemical potential not found - please see above for a more detailed error message and output
**Error! elsi_mu_and_occ_normal: Chemical potential not found - please see above for a more detailed error message and output
**Error! elsi_mu_and_occ_normal: Chemical potential not found - please see above for a more detailed error message and output
**Error! elsi_mu_and_occ_normal: Chemical potential not found - please see above for a more detailed error message and output
**Error! elsi_mu_and_occ_normal: Chemical potential not found - please see above for a more detailed error message and output
**Error! elsi_mu_and_occ_normal: Chemical potential not found - please see above for a more detailed error message and output
**Error! elsi_mu_and_occ_normal: Chemical potential not found - please see above for a more detailed error message and output
**Error! elsi_mu_and_occ_normal: Chemical potential not found - please see above for a more detailed error message and output
**Error! elsi_mu_and_occ_normal: Chemical potential not found - please see above for a more detailed error message and output
**Error! elsi_mu_and_occ_normal: Chemical potential not found - please see above for a more detailed error message and output
**Error! elsi_mu_and_occ_normal: Chemical potential not found - please see above for a more detailed error message and output
**Error! elsi_mu_and_occ_normal: Chemical potential not found - please see above for a more detailed error message and output
**Error! elsi_mu_and_occ_normal: Chemical potential not found - please see above for a more detailed error message and output
**Error! elsi_mu_and_occ_normal: Chemical potential not found - please see above for a more detailed error message and output
**Error! elsi_mu_and_occ_normal: Chemical potential not found - please see above for a more detailed error message and output
**Error! elsi_mu_and_occ_normal: Chemical potential not found - please see above for a more detailed error message and output
**Error! elsi_mu_and_occ_normal: Chemical potential not found - please see above for a more detailed error message and output
**Error! elsi_mu_and_occ_normal: Chemical potential not found - please see above for a more detailed error message and output
**Error! elsi_mu_and_occ_normal: Chemical potential not found - please see above for a more detailed error message and output
**Error! elsi_mu_and_occ_normal: Chemical potential not found - please see above for a more detailed error message and output
**Error! elsi_mu_and_occ_normal: Chemical potential not found - please see above for a more detailed error message and output
**Error! elsi_mu_and_occ_normal: Chemical potential not found - please see above for a more detailed error message and output
**Error! elsi_mu_and_occ_normal: Chemical potential not found - please see above for a more detailed error message and output
**Error! elsi_mu_and_occ_normal: Chemical potential not found - please see above for a more detailed error message and output
**Error! elsi_mu_and_occ_normal: Chemical potential not found - please see above for a more detailed error message and output
**Error! elsi_mu_and_occ_normal: Chemical potential not found - please see above for a more detailed error message and output
**Error! elsi_mu_and_occ_normal: Chemical potential not found - please see above for a more detailed error message and output
**Error! elsi_mu_and_occ_normal: Chemical potential not found - please see above for a more detailed error message and output
**Error! elsi_mu_and_occ_normal: Chemical potential not found - please see above for a more detailed error message and output
**Error! elsi_mu_and_occ_normal: Chemical potential not found - please see above for a more detailed error message and output
**Error! elsi_mu_and_occ_normal: Chemical potential not found - please see above for a more detailed error message and output
**Error! elsi_mu_and_occ_normal: Chemical potential not found - please see above for a more detailed error message and output
**Error! elsi_mu_and_occ_normal: Chemical potential not found - please see above for a more detailed error message and output
**Error! elsi_mu_and_occ_normal: Chemical potential not found - please see above for a more detailed error message and output
**Error! elsi_mu_and_occ_normal: Chemical potential not found - please see above for a more detailed error message and output
**Error! elsi_mu_and_occ_normal: Chemical potential not found - please see above for a more detailed error message and output
**Error! elsi_mu_and_occ_normal: Chemical potential not found - please see above for a more detailed error message and output
**Error! elsi_mu_and_occ_normal: Chemical potential not found - please see above for a more detailed error message and output
**Error! elsi_mu_and_occ_normal: Chemical potential not found - please see above for a more detailed error message and output
**Error! elsi_mu_and_occ_normal: Chemical potential not found - please see above for a more detailed error message and output
**Error! elsi_mu_and_occ_normal: Chemical potential not found - please see above for a more detailed error message and output
**Error! elsi_mu_and_occ_normal: Chemical potential not found - please see above for a more detailed error message and output
**Error! elsi_mu_and_occ_normal: Chemical potential not found - please see above for a more detailed error message and output
**Error! elsi_mu_and_occ_normal: Chemical potential not found - please see above for a more detailed error message and output
**Error! elsi_mu_and_occ_normal: Chemical potential not found - please see above for a more detailed error message and output
**Error! elsi_mu_and_occ_normal: Chemical potential not found - please see above for a more detailed error message and output
**Error! elsi_mu_and_occ_normal: Chemical potential not found - please see above for a more detailed error message and output
**Error! elsi_mu_and_occ_normal: Chemical potential not found - please see above for a more detailed error message and output
**Error! elsi_mu_and_occ_normal: Chemical potential not found - please see above for a more detailed error message and output
**Error! elsi_mu_and_occ_normal: Chemical potential not found - please see above for a more detailed error message and output
**Error! elsi_mu_and_occ_normal: Chemical potential not found - please see above for a more detailed error message and output
**Error! elsi_mu_and_occ_normal: Chemical potential not found - please see above for a more detailed error message and output
**Error! elsi_mu_and_occ_normal: Chemical potential not found - please see above for a more detailed error message and output
**Error! elsi_mu_and_occ_normal: Chemical potential not found - please see above for a more detailed error message and output
**Error! elsi_mu_and_occ_normal: Chemical potential not found - please see above for a more detailed error message and output
**Error! elsi_mu_and_occ_normal: Chemical potential not found - please see above for a more detailed error message and output
**Error! elsi_mu_and_occ_normal: Chemical potential not found - please see above for a more detailed error message and output
**Error! elsi_mu_and_occ_normal: Chemical potential not found - please see above for a more detailed error message and output
**Error! elsi_mu_and_occ_normal: Chemical potential not found - please see above for a more detailed error message and output
**Error! elsi_mu_and_occ_normal: Chemical potential not found - please see above for a more detailed error message and output
**Error! elsi_mu_and_occ_normal: Chemical potential not found - please see above for a more detailed error message and output
**Error! elsi_mu_and_occ_normal: Chemical potential not found - please see above for a more detailed error message and output
**Error! elsi_mu_and_occ_normal: Chemical potential not found - please see above for a more detailed error message and output
**Error! elsi_mu_and_occ_normal: Chemical potential not found - please see above for a more detailed error message and output
**Error! elsi_mu_and_occ_normal: Chemical potential not found - please see above for a more detailed error message and output
**Error! elsi_mu_and_occ_normal: Chemical potential not found - please see above for a more detailed error message and output
**Error! elsi_mu_and_occ_normal: Chemical potential not found - please see above for a more detailed error message and output
**Error! elsi_mu_and_occ_normal: Chemical potential not found - please see above for a more detailed error message and output
**Error! elsi_mu_and_occ_normal: Chemical potential not found - please see above for a more detailed error message and output
**Error! elsi_mu_and_occ_normal: Chemical potential not found - please see above for a more detailed error message and output
**Error! elsi_mu_and_occ_normal: Chemical potential not found - please see above for a more detailed error message and output
**Error! elsi_mu_and_occ_normal: Chemical potential not found - please see above for a more detailed error message and output
**Error! elsi_mu_and_occ_normal: Chemical potential not found - please see above for a more detailed error message and output
**Error! elsi_mu_and_occ_normal: Chemical potential not found - please see above for a more detailed error message and output
**Error! elsi_mu_and_occ_normal: Chemical potential not found - please see above for a more detailed error message and output
**Error! elsi_mu_and_occ_normal: Chemical potential not found - please see above for a more detailed error message and output
**Error! elsi_mu_and_occ_normal: Chemical potential not found - please see above for a more detailed error message and output
**Error! elsi_mu_and_occ_normal: Chemical potential not found - please see above for a more detailed error message and output
**Error! elsi_mu_and_occ_normal: Chemical potential not found - please see above for a more detailed error message and output
**Error! elsi_mu_and_occ_normal: Chemical potential not found - please see above for a more detailed error message and output
**Error! elsi_mu_and_occ_normal: Chemical potential not found - please see above for a more detailed error message and output
**Error! elsi_mu_and_occ_normal: Chemical potential not found - please see above for a more detailed error message and output
**Error! elsi_mu_and_occ_normal: Chemical potential not found - please see above for a more detailed error message and output
**Error! elsi_mu_and_occ_normal: Chemical potential not found - please see above for a more detailed error message and output
**Error! elsi_mu_and_occ_normal: Chemical potential not found - please see above for a more detailed error message and output
**Error! elsi_mu_and_occ_normal: Chemical potential not found - please see above for a more detailed error message and output
**Error! elsi_mu_and_occ_normal: Chemical potential not found - please see above for a more detailed error message and output
**Error! elsi_mu_and_occ_normal: Chemical potential not found - please see above for a more detailed error message and output
**Error! elsi_mu_and_occ_normal: Chemical potential not found - please see above for a more detailed error message and output
