------------------------------------------------------------
          Invoking FHI-aims ...

          When using FHI-aims, please cite the following reference:

            Volker Blum, Ralf Gehrke, Felix Hanke, Paula Havu,
            Ville Havu, Xinguo Ren, Karsten Reuter, and Matthias Scheffler,
            'Ab Initio Molecular Simulations with Numeric Atom-Centered Orbitals',
            Computer Physics Communications 180, 2175-2196 (2009)

          In addition, many other developments in FHI-aims are likely important for
          your particular application. A partial list of references is given at the end of
          this file. Thank you for giving credit to the authors of these developments.

          For any questions about FHI-aims, please visit our slack channel at

            https://fhi-aims.slack.com

          and our main development and support site at

            https://aims-git.rz-berlin.mpg.de .

          The latter site, in particular, has a wiki to collect information, as well
          as an issue tracker to log discussions, suggest improvements, and report issues
          or bugs. https://aims-git.rz-berlin.mpg.de is also the main development site
          of the project and all new and updated code versions can be obtained there.
          Please send an email to aims-coordinators@fhi-berlin.mpg.de and we will add
          you to these sites. They are for you and everyone is welcome there.

------------------------------------------------------------



  Date     :  20240810, Time     :  161551.024
  Time zero on CPU 1             :   0.635590000000000E-01  s.
  Internal wall clock time zero  :           492538551.024  s.

  FHI-aims created a unique identifier for this run for later identification
  aims_uuid : C3AC2A4D-236B-4384-A15C-54D395ED10E7

  Build configuration of the current instance of FHI-aims
  -------------------------------------------------------
  FHI-aims version      : 210618
  Commit number         : f9e1e7592
  CMake host system     : Linux-3.10.0-1127.13.1.el7.x86_64
  CMake version         : 3.17.3
  Fortran compiler      : /apps/compilers/intel/2018.2/compilers_and_libraries_2018/linux/mpi/intel64/bin/mpif90 (Intel) version 18.0.2.20180210
  Fortran compiler flags: -O3 -ip -fp-model precise
  C compiler            : /apps/compilers/intel/2018.2/compilers_and_libraries_2018/linux/bin/intel64/icc (Intel) version 18.0.2.20180210
  C compiler flags      : -O3 -ip -fp-model precise -std=gnu99
  ELPA2 kernel          : AVX2
  Using MPI
  Using ScaLAPACK
  Using LibXC
  Using i-PI
  Using RLSY
  Linking against: /apps/compilers/intel/2018.2/compilers_and_libraries_2018/linux/mkl/lib/intel64/libmkl_intel_lp64.so
                   /apps/compilers/intel/2018.2/compilers_and_libraries_2018/linux/mkl/lib/intel64/libmkl_intel_thread.so
                   /apps/compilers/intel/2018.2/compilers_and_libraries_2018/linux/mkl/lib/intel64/libmkl_core.so
                   /apps/compilers/intel/2018.2/compilers_and_libraries_2018/linux/mkl/lib/intel64/libmkl_blacs_intelmpi_lp64.so
                   /apps/compilers/intel/2018.2/compilers_and_libraries_2018/linux/mkl/lib/intel64/libmkl_scalapack_lp64.so
                   /usr/lib64/libpthread.so

  Using       40 parallel tasks.
  Task        0 on host ccs0136 reporting.
  Task        1 on host ccs0136 reporting.
  Task        2 on host ccs0136 reporting.
  Task        3 on host ccs0136 reporting.
  Task        4 on host ccs0136 reporting.
  Task        5 on host ccs0136 reporting.
  Task        6 on host ccs0136 reporting.
  Task        7 on host ccs0136 reporting.
  Task        8 on host ccs0136 reporting.
  Task        9 on host ccs0136 reporting.
  Task       10 on host ccs0136 reporting.
  Task       11 on host ccs0136 reporting.
  Task       12 on host ccs0136 reporting.
  Task       13 on host ccs0136 reporting.
  Task       14 on host ccs0136 reporting.
  Task       15 on host ccs0136 reporting.
  Task       16 on host ccs0136 reporting.
  Task       17 on host ccs0136 reporting.
  Task       18 on host ccs0136 reporting.
  Task       19 on host ccs0136 reporting.
  Task       20 on host ccs0136 reporting.
  Task       21 on host ccs0136 reporting.
  Task       22 on host ccs0136 reporting.
  Task       23 on host ccs0136 reporting.
  Task       24 on host ccs0136 reporting.
  Task       25 on host ccs0136 reporting.
  Task       26 on host ccs0136 reporting.
  Task       27 on host ccs0136 reporting.
  Task       28 on host ccs0136 reporting.
  Task       29 on host ccs0136 reporting.
  Task       30 on host ccs0136 reporting.
  Task       31 on host ccs0136 reporting.
  Task       32 on host ccs0136 reporting.
  Task       33 on host ccs0136 reporting.
  Task       34 on host ccs0136 reporting.
  Task       35 on host ccs0136 reporting.
  Task       36 on host ccs0136 reporting.
  Task       37 on host ccs0136 reporting.
  Task       38 on host ccs0136 reporting.
  Task       39 on host ccs0136 reporting.

  Performing system and environment tests:
  *** Environment variable OMP_NUM_THREADS is not set
  *** For performance reasons you might want to set it to 1
  | Checking for ScaLAPACK...
  | Testing pdtran()...
  | All pdtran() tests passed.

  Obtaining array dimensions for all initial allocations:
  
  -----------------------------------------------------------------------
  Parsing control.in (first pass over file, find array dimensions only).
  The contents of control.in will be repeated verbatim below
  unless switched off by setting 'verbatim_writeout .false.' .
  in the first line of control.in .
  -----------------------------------------------------------------------
  
  #===============================================================================
  # FHI-aims file: ./control.in
  # Created using the Atomic Simulation Environment (ASE)
  # Thu May  9 17:49:07 2024
  #===============================================================================
  spin                               none
  relativistic                       atomic_zora scalar
  compute_forces                     .true.
  override_warning_libxc             true
  xc                                 libxc MGGA_X_MBEEF+GGA_C_PBE_SOL
  k_grid                             5 4 5
  occupation_type                    gaussian 0.1
  plus_u_petukhov_mixing             1
  plus_u_use_hydros                  True
  plus_u_matrix_control              True
  sc_accuracy_etot                   1e-06
  sc_accuracy_eev                    0.001
  sc_accuracy_rho                    1e-06
  sc_accuracy_forces                 0.0001
  relax_geometry                     bfgs 0.01
  #===============================================================================
  
  ################################################################################
  #
  #  FHI-aims code project
  #  VB, Fritz-Haber Institut, 2009
  #
  #  Suggested "light" defaults for Zr atom (to be pasted into control.in file)
  #  Be sure to double-check any results obtained with these settings for post-processing,
  #  e.g., with the "tight" defaults and larger basis sets.
  #
  ################################################################################
    species          Zr
  #     global species definitions
      nucleus        40
      mass           91.224
  #
      l_hartree      4
  #
      cut_pot        3.5  1.5  1.0
      basis_dep_cutoff    1e-4
  #
      radial_base    58  5.0
      radial_multiplier  1
      angular_grids specified
        division   0.5825   50
        division   1.1060  110
        division   1.4586  194
        division   1.7061  302
  #      division   1.9320  434
  #      division   2.2803  590
  #      division   2.4151  770
  #      division   2.4626  974
  #      division   3.1649 1202
  #      outer_grid  974
        outer_grid  302
  ################################################################################
  #
  #  Definition of "minimal" basis
  #
  ################################################################################
  #     valence basis states
      valence      5  s   2.
      valence      4  p   6.
      valence      4  d   2.
  #     ion occupancy
      ion_occ      5  s   1.
      ion_occ      4  p   6.
      ion_occ      4  d   1.
  ################################################################################
  #
  #  Suggested additional basis functions. For production calculations,
  #  uncomment them one after another (the most important basis functions are
  #  listed first).
  #
  #  Constructed for dimers: 1.9, 2.25, 3.00, 4.00 Ang
  #
  ################################################################################
  #  "First tier" - improvements: -605.96 meV to -18.06 meV
       hydro 4 f 7.2
       ionic 4 d auto
       ionic 5 p auto
  #     hydro 5 g 10.4
       ionic 5 s auto
  #  "Second tier" - improvements: -32.47 meV to -1.41 meV
  #     hydro 4 f 10.4
  #     hydro 6 h 14.8
  #     hydro 4 d 6.2
  #     hydro 4 p 4.4
  #     hydro 4 f 20
  #     hydro 5 s 6
  #  "Third tier" - improvements: -1.99 meV and lower.
  #     hydro 4 f 5.8
  #     hydro 5 g 10.8
  #     hydro 2 p 1
  #     hydro 3 d 8
  #     hydro 6 h 14.4
  #     hydro 1 s 0.9
  #  Further functions (approx -0.40 meV and below possible)
  plus_u 4 d 1.837
  hubbard_coefficient 0.755 0 0 0
  ################################################################################
  #
  #  FHI-aims code project
  #  VB, Fritz-Haber Institut, 2009
  #
  #  Suggested "light" defaults for O atom (to be pasted into control.in file)
  #  Be sure to double-check any results obtained with these settings for post-processing,
  #  e.g., with the "tight" defaults and larger basis sets.
  #
  ################################################################################
    species        O
  #     global species definitions
      nucleus             8
      mass                15.9994
  #
      l_hartree           4
  #
      cut_pot             3.5  1.5  1.0
      basis_dep_cutoff    1e-4
  #
      radial_base         36 5.0
      radial_multiplier   1
       angular_grids specified
        division   0.2659   50
        division   0.4451  110
        division   0.6052  194
        division   0.7543  302
  #      division   0.8014  434
  #      division   0.8507  590
  #      division   0.8762  770
  #      division   0.9023  974
  #      division   1.2339 1202
  #      outer_grid 974
        outer_grid 302
  ################################################################################
  #
  #  Definition of "minimal" basis
  #
  ################################################################################
  #     valence basis states
      valence      2  s   2.
      valence      2  p   4.
  #     ion occupancy
      ion_occ      2  s   1.
      ion_occ      2  p   3.
  ################################################################################
  #
  #  Suggested additional basis functions. For production calculations,
  #  uncomment them one after another (the most important basis functions are
  #  listed first).
  #
  #  Constructed for dimers: 1.0 A, 1.208 A, 1.5 A, 2.0 A, 3.0 A
  #
  ################################################################################
  #  "First tier" - improvements: -699.05 meV to -159.38 meV
       hydro 2 p 1.8
       hydro 3 d 7.6
       hydro 3 s 6.4
  #  "Second tier" - improvements: -49.91 meV to -5.39 meV
  #     hydro 4 f 11.6
  #     hydro 3 p 6.2
  #     hydro 3 d 5.6
  #     hydro 5 g 17.6
  #     hydro 1 s 0.75
  #  "Third tier" - improvements: -2.83 meV to -0.50 meV
  #     ionic 2 p auto
  #     hydro 4 f 10.8
  #     hydro 4 d 4.7
  #     hydro 2 s 6.8
  #  "Fourth tier" - improvements: -0.40 meV to -0.12 meV
  #     hydro 3 p 5
  #     hydro 3 s 3.3
  #     hydro 5 g 15.6
  #     hydro 4 f 17.6
  #     hydro 4 d 14
  # Further basis functions - -0.08 meV and below
  #     hydro 3 s 2.1
  #     hydro 4 d 11.6
  #     hydro 3 p 16
  #     hydro 2 s 17.2
  plus_u 2 p 0
  hubbard_coefficient 1 0 0 0
  
  -----------------------------------------------------------------------
  Completed first pass over input file control.in .
  -----------------------------------------------------------------------
  
  
  -----------------------------------------------------------------------
  Parsing geometry.in (first pass over file, find array dimensions only).
  The contents of geometry.in will be repeated verbatim below
  unless switched off by setting 'verbatim_writeout .false.' .
  in the first line of geometry.in .
  -----------------------------------------------------------------------
  
  #=======================================================
  # FHI-aims file: ./geometry.in
  # Created using the Atomic Simulation Environment (ASE)
  # Thu May  9 17:49:07 2024
  #=======================================================
  lattice_vector 5.0049999999999999 0.0000000000000000 0.0000000000000000
  lattice_vector 0.0000000000000000 5.2350000000000003 0.0000000000000000
  lattice_vector 0.0000000000000000 0.0000000000000000 5.0510000000000002
  atom_frac 0.2810484803650034 0.4767475789759016 0.7499982733274482 Zr
  atom_frac 0.7189515219251388 0.5232524201514053 0.2500017862642608 Zr
  atom_frac 0.2810484791161368 0.0232524229957997 0.2499981494002497 Zr
  atom_frac 0.7189515190248899 0.9767475807060068 0.7500018626576940 Zr
  atom_frac 0.1249878559477200 0.0915786169622652 0.6192345585235859 O
  atom_frac 0.8750188993421297 0.9084275003415966 0.1192390646135639 O
  atom_frac 0.1249786590988120 0.4084339990982827 0.3807606250693144 O
  atom_frac 0.8750090720085497 0.5915862500185642 0.8807656808390374 O
  atom_frac 0.8750117694480427 0.9084206996992350 0.3807653674524634 O
  atom_frac 0.1249814785019964 0.0915731798898369 0.8807608604806156 O
  atom_frac 0.8750215945815695 0.5915655480327123 0.6192393782635760 O
  atom_frac 0.1249906705099128 0.4084142005449621 0.1192343217528349 O
  atom_frac 0.4441565426281775 0.7500007540732495 0.0000012577091973 O
  atom_frac 0.5558410961849989 0.2500007085028417 0.4999987777085065 O
  atom_frac 0.5558434666613986 0.2499992931481421 -0.0000012213598385 O
  atom_frac 0.4441588946555242 0.7499992468591983 0.5000012572974912 O
  
  -----------------------------------------------------------------------
  Completed first pass over input file geometry.in .
  -----------------------------------------------------------------------
  

  Basic array size parameters:
  | Number of species                 :        2
  | Number of atoms                   :       16
  | Number of lattice vectors         :        3
  | Max. basis fn. angular momentum   :        3
  | Max. atomic/ionic basis occupied n:        5
  | Max. number of basis fn. types    :        3
  | Max. radial fns per species/type  :       10
  | Max. logarithmic grid size        :     1432
  | Max. radial integration grid size :       58
  | Max. angular integration grid size:      302
  | Max. angular grid division number :        8
  | Radial grid for Hartree potential :     1432
  | Number of spin channels           :        1
  | Max. number of (n,l) shells per species with '+U' treatment:        1

------------------------------------------------------------
          Reading file control.in.
------------------------------------------------------------
  Spin treatment: No spin polarisation.
  Scalar relativistic treatment of kinetic energy: on-site free-atom approximation to ZORA.
  Forces will be computed.
  XC: Using LibXC. Please refer to LibXC output for further details.
  Using libxc - Initializing
  Libxc version: 4.3.4


  ** PLEASE ** be careful using LibXC. Whilst most of the LDA, GGA and MGGA functionals,
  and hybrid variations therein, should be stable (though we always recommend testing!),
  there are several fancy functionals with e.g. range-separation, like HSE03/HSE06/LC-PBEh,
  and also MGGA functionals that depend on the laplacian of the density, like BR89,
  that are not fully implemented due to the infrastrucutre for these functionals being incomplete or non-generic.
  If you want to use these functionals please contact the development team and we will work on them with you!

  You have selected libxc functional MGGA_X_MBEEF (249)
    - Description: mBEEF exchange
    - Type: MGGA(Exchange)
    - Reference to Literature:
      [1] J. Wellendorff, K. T. Lundgaard, K. W. Jacobsen, and T. Bligaard, J. Chem. Phys. 140, 144107 (2014)

  You have selected libxc functional GGA_C_PBE_SOL (133)
    - Description: Perdew, Burke & Ernzerhof SOL
    - Type: GGA(Correlation)
    - Reference to Literature:
      [1] J. P. Perdew, A. Ruzsinszky, G. I. Csonka, O. A. Vydrov, G. E. Scuseria, L. A. Constantin, X. Zhou, and K. Burke, Phys.

  Switching on meta-ggas
  Found k-point grid:         5         4         5
  Occupation type: Gaussian broadening, width =   0.100000E+00 eV.
  Fixing petukhov mixing factor to   1.000000000000
  hydrogenic basis funktions also used for DFT+U reference states
  Convergence accuracy of total energy:  0.1000E-05
  Convergence accuracy of sum of eigenvalues:  0.1000E-02
  Convergence accuracy of self-consistent charge density:  0.1000E-05
  Convergence accuracy of forces:  0.1000E-03
  Geometry relaxation: Modified BFGS - TRM (trust radius method) for lattice optimization.
  Convergence accuracy for geometry relaxation: Maximum force <   0.100000E-01 eV/A.
 
  Reading configuration options for species Zr                  .
  | Found nuclear charge :  40.0000
  | Found atomic mass :    91.2240000000000      amu
  | Found l_max for Hartree potential  :   4
  | Found cutoff potl. onset [A], width [A], scale factor :    3.50000    1.50000    1.00000
  | Threshold for basis-dependent cutoff potential is   0.100000E-03
  | Found data for basic radial integration grid :    58 points, outermost radius =    5.000 A
  | Found multiplier for basic radial grid :   1
  | Found angular grid specification: user-specified.
  | Specified grid contains     5 separate shells.
  | Check grid settings after all constraints further below.
  | Found free-atom valence shell :  5 s   2.000
  | Found free-atom valence shell :  4 p   6.000
  | Found free-atom valence shell :  4 d   2.000
  | Found free-ion valence shell :  5 s   1.000
  | Found free-ion valence shell :  4 p   6.000
  | Found free-ion valence shell :  4 d   1.000
  | Found hydrogenic basis function :  4 f   7.200
  | Found ionic basis function :  4 d , default cutoff radius.
  | Found ionic basis function :  5 p , default cutoff radius.
  | Found ionic basis function :  5 s , default cutoff radius.
  | Found request for '+U' treatment for  4 d shell, U =     1.837000 eV.
  | Found coefficents for linear combination of hubbard projectors 
  Species Zr                  : Missing cutoff potential type.
  Defaulting to exp(1/x)/(1-x)^2 type cutoff potential.
  Species Zr: No 'logarithmic' tag. Using default grid for free atom:
  | Default logarithmic grid data [bohr] : 0.1000E-03 0.1000E+03 0.1012E+01
  | Will include ionic basis functions of  2.0-fold positive Zr                   ion.
  Species Zr: On-site basis accuracy parameter (for Gram-Schmidt orthonormalisation) not specified.
  Using default value basis_acc =  0.1000000E-03.
  Species Zr                  : Using default innermost maximum threshold i_radial=  2 for radial functions.
  Species Zr                  : Default cutoff onset for free atom density etc. : 0.35000000E+01 AA.
  Species Zr                  : Basic radial grid will be enhanced according to radial_multiplier =   1, to contain    58 grid points.
 
  Reading configuration options for species O                   .
  | Found nuclear charge :   8.0000
  | Found atomic mass :    15.9994000000000      amu
  | Found l_max for Hartree potential  :   4
  | Found cutoff potl. onset [A], width [A], scale factor :    3.50000    1.50000    1.00000
  | Threshold for basis-dependent cutoff potential is   0.100000E-03
  | Found data for basic radial integration grid :    36 points, outermost radius =    5.000 A
  | Found multiplier for basic radial grid :   1
  | Found angular grid specification: user-specified.
  | Specified grid contains     5 separate shells.
  | Check grid settings after all constraints further below.
  | Found free-atom valence shell :  2 s   2.000
  | Found free-atom valence shell :  2 p   4.000
  | Found free-ion valence shell :  2 s   1.000
  | Found free-ion valence shell :  2 p   3.000
  | Found hydrogenic basis function :  2 p   1.800
  | Found hydrogenic basis function :  3 d   7.600
  | Found hydrogenic basis function :  3 s   6.400
  | Found request for '+U' treatment for  2 p shell, U =     0.000000 eV.
  | Found coefficents for linear combination of hubbard projectors 
  Species O                   : Missing cutoff potential type.
  Defaulting to exp(1/x)/(1-x)^2 type cutoff potential.
  Species O : No 'logarithmic' tag. Using default grid for free atom:
  | Default logarithmic grid data [bohr] : 0.1000E-03 0.1000E+03 0.1012E+01
  Species O : On-site basis accuracy parameter (for Gram-Schmidt orthonormalisation) not specified.
  Using default value basis_acc =  0.1000000E-03.
  Species O                   : Using default innermost maximum threshold i_radial=  2 for radial functions.
  Species O                   : Default cutoff onset for free atom density etc. : 0.35000000E+01 AA.
  Species O                   : Basic radial grid will be enhanced according to radial_multiplier =   1, to contain    36 grid points.
 
  Finished reading input file 'control.in'.
 
------------------------------------------------------------


------------------------------------------------------------
          Reading geometry description geometry.in.
------------------------------------------------------------
  | The smallest distance between any two atoms is         1.32096935 AA.
  | The first atom of this pair is atom number                      5 .
  | The second atom of this pair is atom number                    10 .
  | Wigner-Seitz cell of the first atom image           0     0     0 .
  | (The Wigner-Seitz cell of the second atom is 0 0 0  by definition.)

  Symmetry information by spglib:
  | Precision set to  0.1E-04
  | Number of Operations  : 2
  | Space group           : 2
  | International         : P-1 n    i
  | Schoenflies           : Ci^1
  Input structure read successfully.
  The structure contains       16 atoms,  and a total of        256.000 electrons.

  Input geometry:
  | Unit cell:
  |        5.00500000        0.00000000        0.00000000
  |        0.00000000        5.23500000        0.00000000
  |        0.00000000        0.00000000        5.05100000
  | Atomic structure:
  |       Atom                x [A]            y [A]            z [A]
  |    1: Species Zr            1.40664764        2.49577358        3.78824128
  |    2: Species Zr            3.59835237        2.73922642        1.26275902
  |    3: Species Zr            1.40664764        0.12172643        1.26274065
  |    4: Species Zr            3.59835235        5.11327358        3.78825941
  |    5: Species O             0.62556422        0.47941406        3.12775376
  |    6: Species O             4.37946959        4.75561796        0.60227652
  |    7: Species O             0.62551819        2.13815199        1.92322192
  |    8: Species O             4.37942041        3.09695402        4.44874745
  |    9: Species O             4.37943391        4.75558236        1.92324587
  |   10: Species O             0.62553230        0.47938560        4.44872311
  |   11: Species O             4.37948308        3.09684564        3.12777810
  |   12: Species O             0.62557831        2.13804834        0.60225256
  |   13: Species O             2.22300350        3.92625395        0.00000635
  |   14: Species O             2.78198469        1.30875371        2.52549383
  |   15: Species O             2.78199655        1.30874630       -0.00000617
  |   16: Species O             2.22301527        3.92624606        2.52550635

  Lattice parameters for 3D lattice (in Angstroms) :     5.005000    5.235000    5.051000
  Angle(s) between unit vectors (in degrees)       :    90.000000   90.000000   90.000000


  Quantities derived from the lattice vectors:
  | Reciprocal lattice vector 1:  1.255382  0.000000  0.000000
  | Reciprocal lattice vector 2:  0.000000  1.200226  0.000000
  | Reciprocal lattice vector 3:  0.000000  0.000000  1.243949
  | Unit cell volume                               :   0.132342E+03  A^3

  Fractional coordinates:
                         L1                L2                L3
       atom_frac         0.28104848        0.47674758        0.74999827  Zr
       atom_frac         0.71895152        0.52325242        0.25000179  Zr
       atom_frac         0.28104848        0.02325242        0.24999815  Zr
       atom_frac         0.71895152        0.97674758        0.75000186  Zr
       atom_frac         0.12498786        0.09157862        0.61923456  O
       atom_frac         0.87501890        0.90842750        0.11923906  O
       atom_frac         0.12497866        0.40843400        0.38076063  O
       atom_frac         0.87500907        0.59158625        0.88076568  O
       atom_frac         0.87501177        0.90842070        0.38076537  O
       atom_frac         0.12498148        0.09157318        0.88076086  O
       atom_frac         0.87502159        0.59156555        0.61923938  O
       atom_frac         0.12499067        0.40841420        0.11923432  O
       atom_frac         0.44415654        0.75000075        0.00000126  O
       atom_frac         0.55584110        0.25000071        0.49999878  O
       atom_frac         0.55584347        0.24999929       -0.00000122  O
       atom_frac         0.44415889        0.74999925        0.50000126  O

 
  Finished reading input file 'control.in'.
 

------------------------------------------------------------
          Reading geometry description geometry.in.
------------------------------------------------------------
 
  Consistency checks for stacksize environment parameter are next.
 
  | Maximum stacksize for task 0: unlimited
  | Maximum stacksize for task 1: unlimited
  | Maximum stacksize for task 2: unlimited
  | Maximum stacksize for task 3: unlimited
  | Maximum stacksize for task 4: unlimited
  | Maximum stacksize for task 5: unlimited
  | Maximum stacksize for task 6: unlimited
  | Maximum stacksize for task 7: unlimited
  | Maximum stacksize for task 8: unlimited
  | Maximum stacksize for task 9: unlimited
  | Maximum stacksize for task 10: unlimited
  | Maximum stacksize for task 11: unlimited
  | Maximum stacksize for task 12: unlimited
  | Maximum stacksize for task 13: unlimited
  | Maximum stacksize for task 14: unlimited
  | Maximum stacksize for task 15: unlimited
  | Maximum stacksize for task 16: unlimited
  | Maximum stacksize for task 17: unlimited
  | Maximum stacksize for task 18: unlimited
  | Maximum stacksize for task 19: unlimited
  | Maximum stacksize for task 20: unlimited
  | Maximum stacksize for task 21: unlimited
  | Maximum stacksize for task 22: unlimited
  | Maximum stacksize for task 23: unlimited
  | Maximum stacksize for task 24: unlimited
  | Maximum stacksize for task 25: unlimited
  | Maximum stacksize for task 26: unlimited
  | Maximum stacksize for task 27: unlimited
  | Maximum stacksize for task 28: unlimited
  | Maximum stacksize for task 29: unlimited
  | Maximum stacksize for task 30: unlimited
  | Maximum stacksize for task 31: unlimited
  | Maximum stacksize for task 32: unlimited
  | Maximum stacksize for task 33: unlimited
  | Maximum stacksize for task 34: unlimited
  | Maximum stacksize for task 35: unlimited
  | Maximum stacksize for task 36: unlimited
  | Maximum stacksize for task 37: unlimited
  | Maximum stacksize for task 38: unlimited
  | Maximum stacksize for task 39: unlimited
  | Current stacksize for task 0: unlimited
  | Current stacksize for task 1: unlimited
  | Current stacksize for task 2: unlimited
  | Current stacksize for task 3: unlimited
  | Current stacksize for task 4: unlimited
  | Current stacksize for task 5: unlimited
  | Current stacksize for task 6: unlimited
  | Current stacksize for task 7: unlimited
  | Current stacksize for task 8: unlimited
  | Current stacksize for task 9: unlimited
  | Current stacksize for task 10: unlimited
  | Current stacksize for task 11: unlimited
  | Current stacksize for task 12: unlimited
  | Current stacksize for task 13: unlimited
  | Current stacksize for task 14: unlimited
  | Current stacksize for task 15: unlimited
  | Current stacksize for task 16: unlimited
  | Current stacksize for task 17: unlimited
  | Current stacksize for task 18: unlimited
  | Current stacksize for task 19: unlimited
  | Current stacksize for task 20: unlimited
  | Current stacksize for task 21: unlimited
  | Current stacksize for task 22: unlimited
  | Current stacksize for task 23: unlimited
  | Current stacksize for task 24: unlimited
  | Current stacksize for task 25: unlimited
  | Current stacksize for task 26: unlimited
  | Current stacksize for task 27: unlimited
  | Current stacksize for task 28: unlimited
  | Current stacksize for task 29: unlimited
  | Current stacksize for task 30: unlimited
  | Current stacksize for task 31: unlimited
  | Current stacksize for task 32: unlimited
  | Current stacksize for task 33: unlimited
  | Current stacksize for task 34: unlimited
  | Current stacksize for task 35: unlimited
  | Current stacksize for task 36: unlimited
  | Current stacksize for task 37: unlimited
  | Current stacksize for task 38: unlimited
  | Current stacksize for task 39: unlimited
 
  Consistency checks for the contents of control.in are next.
 
  MPI_IN_PLACE appears to work with this MPI implementation.
  | Keeping use_mpi_in_place .true. (see manual).
  Target number of points in a grid batch is not set. Defaulting to  100
  Method for grid partitioning is not set. Defaulting to parallel hash+maxmin partitioning.
  Batch size limit is not set. Defaulting to    200
  By default, will store active basis functions for each batch.
  If in need of memory, prune_basis_once .false. can be used to disable this option.
  communication_type for Hartree potential was not specified.
  Defaulting to calc_hartree .
  Defaulting to Pulay charge density mixer.
  Pulay mixer: Number of relevant iterations not set.
  Defaulting to    8 iterations.
  Pulay mixer: Number of initial linear mixing iterations not set.
  Defaulting to    0 iterations.
  Work space size for distributed Hartree potential not set.
  Defaulting to   0.200000E+03 MB.
  Mixing parameter for charge density mixing has not been set.
  Using default: charge_mix_param =     0.0500.
  The mixing parameter will be adjusted in iteration number     2 of the first full s.c.f. cycle only.
  Algorithm-dependent basis array size parameters:
  | n_max_pulay                         :        8
  Maximum number of self-consistency iterations not provided.
  Presetting  1000 iterations.
  Presetting      1001 iterations before the initial mixing cycle
  is restarted anyway using the sc_init_iter criterion / keyword.
  Presetting a factor      1.000 between actual scf density residual
  and density convergence criterion sc_accuracy_rho below which sc_init_iter
  takes no effect.
  No maximum number of relaxation steps, defaulting to     1000
  Default initial Hessian is Lindh matrix (thres = 15.00) plus  0.200000E+01 eV/A^2 times unity.
  No maximum energy tolerance for TRM/BFGS moves, defaulting to   0.100000E-02
  Maximum energy tolerance by which TRM/BFGS trajectory may increase over multiple steps:   0.300000E-02
  No harmonic length scale. Defaulting to   0.250000E-01 A.
  No trust radius initializer. Defaulting to   0.200000E+00 A.
  Forces evaluation will include force correction term due to incomplete self-consistency (default).
  Handling of forces: Unphysical translation and rotation will be removed from forces.
  No accuracy limit for integral partition fn. given. Defaulting to  0.1000E-14.
  No threshold value for u(r) in integrations given. Defaulting to  0.1000E-05.
  No accuracy for occupation numbers given. Defaulting to  0.1000E-12.
  No threshold value for occupation numbers given. Defaulting to  0.0000E+00.
  No accuracy for fermi level given. Defaulting to  0.1000E-19.
  Maximum # of iterations to find E_F not set. Defaulting to  200.
  Preferred method for the eigenvalue solver ('KS_method') not specified in 'control.in'.
  Defaulting to serial version, LAPACK (via ELSI), since more k-points than CPUs available.
  Will not use alltoall communication since running on < 1024 CPUs.
  Threshold for basis singularities not set.
  Default threshold for basis singularities:  0.1000E-04
  partition_type (choice of integration weights) for integrals was not specified.
  | Using a version of the partition function of Stratmann and coworkers ('stratmann_sparse').
  | At each grid point, the set of atoms used to build the partition table is smoothly restricted to
  | only those atoms whose free-atom density would be non-zero at that grid point.
  Partitioning for Hartree potential was not defined. Using partition_type for integrals.
  | Adjusted default value of keyword multip_moments_threshold to:       0.10000000E-11
  | This value may affect high angular momentum components of the Hartree potential in periodic systems.
  Angular momentum expansion for Kerker preconditioner not set explicitly.
  | Using default value of   0
  No explicit requirement for turning off preconditioner.
  | By default, it will be turned off when the charge convergence reaches
  | sc_accuracy_rho  =   0.100000E-05
  | sc_accuracy_eev  =   0.100000E-02
  | sc_accuracy_etot =   0.100000E-05
  No special mixing parameter while Kerker preconditioner is on.
  Using default: charge_mix_param =     0.0500.
  No q(lm)/r^(l+1) cutoff set for long-range Hartree potential.
  | Using default value of  0.100000E-09 .
  | Verify using the multipole_threshold keyword.
  Defaulting to new monopole extrapolation.
  Density update method: automatic selection selected.
  Using density matrix based charge density update.
 * Warning: DFT+U requires using density matrix based charge density update.
  Using density matrix based charge density update.
  Using packed matrix style: index .
  Geometry relaxation: A file "geometry.in.next_step" is written out by default after each step.
  | This file contains the geometry of the current relaxation step as well as
  | the current Hessian matrix needed to restart the relaxation algorithm.
  | If you do not want part or all of this information, use the keywords
  | "write_restart_geometry" or "hessian_to_restart_geometry" to switch the output off.
  Defaulting to use time-reversal symmetry for k-point grid.
  Charge integration errors on the 3D integration grid will be compensated
  by explicit normalization and distribution of residual charges.
  Use the "compensate_multipole_errors" flag to change this behaviour.
  Set 'collect_eigenvectors' to be '.true.' for all serial calculations. This is mandatory.
  Set 'collect_eigenvectors' to be '.true.' for KS_method lapack_fast and serial.
 
  Consistency checks for the contents of geometry.in are next.
 

  Range separation radius for Ewald summation (hartree_convergence_parameter):      2.74853427 bohr.
  Number of empty states per atom not set in control.in - providing a guess from actual geometry.
  | Total number of empty states used during s.c.f. cycle:       58
  If you use a very high smearing, use empty_states (per atom!) in control.in to increase this value.

  Structure-dependent array size parameters: 
  | Maximum number of distinct radial functions  :       20
  | Maximum number of basis functions            :      328
  | Number of Kohn-Sham states (occupied + empty):      186
------------------------------------------------------------

------------------------------------------------------------
          Preparing all fixed parts of the calculation.
------------------------------------------------------------
  Determining machine precision:
    2.225073858507201E-308
  Setting up grids for atomic and cluster calculations.

  Creating wave function, potential, and density for free atoms.

  Species: Zr

  List of occupied orbitals and eigenvalues:
    n    l              occ      energy [Ha]    energy [eV]
    1    0           2.0000      -667.705443    -18169.1895
    2    0           2.0000       -90.947874     -2474.8176
    3    0           2.0000       -14.816438      -403.1758
    4    0           2.0000        -1.980587       -53.8945
    5    0           2.0000        -0.149501        -4.0681
    2    1           6.0000       -81.145891     -2208.0920
    3    1           6.0000       -11.637551      -316.6739
    4    1           6.0000        -1.172029       -31.8925
    3    2          10.0000        -6.408139      -174.3743
    4    2           2.0000        -0.117825        -3.2062


  Species: O

  List of occupied orbitals and eigenvalues:
    n    l              occ      energy [Ha]    energy [eV]
    1    0           2.0000       -18.786109      -511.1960
    2    0           2.0000        -0.872635       -23.7456
    2    1           4.0000        -0.337687        -9.1889


  Adding cutoff potential to free-atom effective potential.
  Creating fixed part of basis set: Ionic, confined, hydrogenic.
 
  Zr                   ion:

  List of free ionic orbitals and eigenvalues:
    n    l      energy [Ha]    energy [eV]
    1    0      -668.422481    -18188.7011
    2    0       -91.659116     -2494.1714
    3    0       -15.521812      -422.3700
    4    0        -2.666442       -72.5576
    5    0        -0.652717       -17.7613
    2    1       -81.856520     -2227.4293
    3    1       -12.342798      -335.8646
    4    1        -1.848413       -50.2979
    3    2        -7.113819      -193.5769
    4    2        -0.734961       -19.9993


  List of ionic basis orbitals and eigenvalues:
    n    l      energy [Ha]    energy [eV]    outer radius [A]
    4    2        -0.734922       -19.9983       4.486525
    5    1        -0.474660       -12.9161       4.597573
    5    0        -0.651984       -17.7414       4.597573

 
  Zr                   hydrogenic:
 
  List of hydrogenic basis orbitals: 
    n    l      effective z      eigenvalue [eV]  inner max. [A]     outer max. [A]     outer radius [A]   
    4    3         7.200000       -44.0814           1.169212           1.169212           4.541709
 
 
  O                    hydrogenic:
 
  List of hydrogenic basis orbitals: 
    n    l      effective z      eigenvalue [eV]  inner max. [A]     outer max. [A]     outer radius [A]   
    2    1         1.800000       -10.9749           1.164242           1.164242           4.578029
    3    2         7.600000       -87.3180           0.624125           0.624125           3.251020
    3    0         6.400000       -61.9207           0.061167           1.081902           4.001998
 
  Creating atomic-like basis functions for current effective potential.

  Species Zr                  :

  List of atomic basis orbitals and eigenvalues:
    n    l      energy [Ha]    energy [eV]    outer radius [A]
    1    0      -667.705443    -18169.1895       0.259930
    2    0       -90.947874     -2474.8176       0.725827
    3    0       -14.816438      -403.1758       1.771771
    4    0        -1.980587       -53.8945       4.169218
    5    0        -0.149501        -4.0681       4.597573
    2    1       -81.145891     -2208.0920       0.743792
    3    1       -11.637551      -316.6739       1.953807
    4    1        -1.172029       -31.8925       4.378160
    3    2        -6.408139      -174.3743       2.434714
    4    2        -0.117825        -3.2062       4.597573


  Species O                   :

  List of atomic basis orbitals and eigenvalues:
    n    l      energy [Ha]    energy [eV]    outer radius [A]
    1    0       -18.786109      -511.1960       1.433179
    2    0        -0.872635       -23.7456       4.413171
    2    1        -0.337687        -9.1889       4.522403

  Assembling full basis from fixed parts.
 * Warning - Since '+U' treatment was requested,
 * the basis-dependent cutoff is turned off automatically.
  | Species Zr :   atomic orbital   1 s accepted.
  | Species Zr :   atomic orbital   2 s accepted.
  | Species Zr :   atomic orbital   3 s accepted.
  | Species Zr :   atomic orbital   4 s accepted.
  | Species Zr :   atomic orbital   5 s accepted.
  | Species Zr :    ionic orbital   5 s accepted.
  | Species Zr :   atomic orbital   2 p accepted.
  | Species Zr :   atomic orbital   3 p accepted.
  | Species Zr :   atomic orbital   4 p accepted.
  | Species Zr :    ionic orbital   5 p accepted.
  | Species Zr :   atomic orbital   3 d accepted.
  | Species Zr :   atomic orbital   4 d accepted.
  | Species Zr :    ionic orbital   4 d accepted.
  | Species Zr :    hydro orbital   4 f accepted.
 * Warning - Since '+U' treatment was requested,
 * the basis-dependent cutoff is turned off automatically.
  | Species O :   atomic orbital   1 s accepted.
  | Species O :   atomic orbital   2 s accepted.
  | Species O :    hydro orbital   3 s accepted.
  | Species O :   atomic orbital   2 p accepted.
  | Species O :    hydro orbital   2 p accepted.
  | Species O :    hydro orbital   3 d accepted.
 
  Basis size parameters after reduction:
  | Total number of radial functions:       20
  | Total number of basis functions :      328
 
  Per-task memory consumption for arrays in subroutine allocate_ext:
  |           7.341088MB.
  Testing on-site integration grid accuracy.
  |  Species  Function  <phi|h_atom|phi> (log., in eV)  <phi|h_atom|phi> (rad., in eV)
           1        1             -18169.1895457911             -18169.1614623736
           1        2              -2474.8175726103              -2474.8171789502
           1        3               -403.1757871568               -403.1757736893
           1        4                -53.8945212947                -53.8945202997
           1        5                 -4.0970677402                 -4.1270612347
           1        6                  7.0596199505                  6.8479589491 ***
           1        7              -2208.0920400563              -2208.0920378658
           1        8               -316.6738872308               -316.6738855534
           1        9                -31.8925290095                -31.8925288827
           1       10                  0.0613944818                  0.0388400402
           1       11               -174.3743475916               -174.3743471166
           1       12                 -3.2114928193                 -3.2170318423
           1       13                  6.4255368912                  6.3312071750 ***
           1       14                 16.9592439398                 16.9589063465
           2       15               -511.1960429777               -511.1959399133
           2       16                -23.7455964041                -23.7455972542
           2       17                 17.3746964700                 17.3748057881
           2       18                 -9.1890598667                 -9.1892026751
           2       19                  8.1915160719                  8.1720639763
           2       20                 45.8005976646                 45.8005620229
 * Note: Onsite integrals marked "***" above are less accurate than
 * onsite_accuracy_threshold =    0.03000 eV. Usually, this is harmless.
 * When in doubt, tighten the "radial" and/or "radial_multiplier" flags to check.

  Preparing densities etc. for the partition functions (integrals / Hartree potential).

  Preparations completed.
  max(cpu_time)          :      0.462 s.
  Wall clock time (cpu1) :      0.462 s.
------------------------------------------------------------

------------------------------------------------------------
          Begin self-consistency loop: Initialization.

          Date     :  20240810, Time     :  161551.603
------------------------------------------------------------

  Initializing index lists of integration centers etc. from given atomic structure:
  Mapping all atomic coordinates to central unit cell.

  Initializing the k-points
  Using symmetry for reducing the k-points
  | k-points reduced from:      100 to       51
  | Number of k-points                             :        51
  The eigenvectors in the calculations are COMPLEX.
  | K-points in task   0:         1
  | K-points in task   1:         2
  | K-points in task   2:         2
  | K-points in task   3:         2
  | K-points in task   4:         2
  | K-points in task   5:         2
  | K-points in task   6:         2
  | K-points in task   7:         2
  | K-points in task   8:         2
  | K-points in task   9:         2
  | K-points in task  10:         2
  | K-points in task  11:         2
  | K-points in task  12:         1
  | K-points in task  13:         1
  | K-points in task  14:         1
  | K-points in task  15:         1
  | K-points in task  16:         1
  | K-points in task  17:         1
  | K-points in task  18:         1
  | K-points in task  19:         1
  | K-points in task  20:         1
  | K-points in task  21:         1
  | K-points in task  22:         1
  | K-points in task  23:         1
  | K-points in task  24:         1
  | K-points in task  25:         1
  | K-points in task  26:         1
  | K-points in task  27:         1
  | K-points in task  28:         1
  | K-points in task  29:         1
  | K-points in task  30:         1
  | K-points in task  31:         1
  | K-points in task  32:         1
  | K-points in task  33:         1
  | K-points in task  34:         1
  | K-points in task  35:         1
  | K-points in task  36:         1
  | K-points in task  37:         1
  | K-points in task  38:         1
  | K-points in task  39:         1
  | Number of basis functions in the Hamiltonian integrals :      4696
  | Number of basis functions in a single unit cell        :       328
  | Number of centers in hartree potential         :      1622
  | Number of centers in hartree multipole         :      1194
  | Number of centers in electron density summation:       878
  | Number of centers in basis integrals           :       942
  | Number of centers in integrals                 :       328
  | Number of centers in hamiltonian               :       888
  | Consuming         74 KiB for k_phase.
  | Number of super-cells (origin) [n_cells]                     :         343
  | Number of super-cells (after PM_index) [n_cells]             :          94
  | Number of super-cells in hamiltonian [n_cells_in_hamiltonian]:          94
  | Size of matrix packed + index [n_hamiltonian_matrix_size] :      892741

  Initializing relaxation algorithms.
  Finished initialization of distributed Hessian storage.
  | Global dimension:        48
  | BLACS block size:         2
  | Number of workers:       24

  | Estimated reciprocal-space cutoff momentum G_max:         3.45264755 bohr^-1 .
  | Reciprocal lattice points for long-range Hartree potential:     626
  Partitioning the integration grid into batches with parallel hashing+maxmin method.
  | Number of batches:     1442
  | Maximal batch size:     116
  | Minimal batch size:      51
  | Average batch size:      73.154
  | Standard deviation of batch sizes:      16.264

  Integration load balanced across    40 MPI tasks.
  Work distribution over tasks is as follows:
  Task     0 has       2618 integration points.
  Task     1 has       2638 integration points.
  Task     2 has       2662 integration points.
  Task     3 has       2672 integration points.
  Task     4 has       2635 integration points.
  Task     5 has       2623 integration points.
  Task     6 has       2694 integration points.
  Task     7 has       2622 integration points.
  Task     8 has       2698 integration points.
  Task     9 has       2658 integration points.
  Task    10 has       2640 integration points.
  Task    11 has       2644 integration points.
  Task    12 has       2633 integration points.
  Task    13 has       2621 integration points.
  Task    14 has       2620 integration points.
  Task    15 has       2644 integration points.
  Task    16 has       2622 integration points.
  Task    17 has       2638 integration points.
  Task    18 has       2626 integration points.
  Task    19 has       2623 integration points.
  Task    20 has       2698 integration points.
  Task    21 has       2621 integration points.
  Task    22 has       2637 integration points.
  Task    23 has       2626 integration points.
  Task    24 has       2648 integration points.
  Task    25 has       2640 integration points.
  Task    26 has       2619 integration points.
  Task    27 has       2623 integration points.
  Task    28 has       2640 integration points.
  Task    29 has       2637 integration points.
  Task    30 has       2618 integration points.
  Task    31 has       2615 integration points.
  Task    32 has       2615 integration points.
  Task    33 has       2635 integration points.
  Task    34 has       2634 integration points.
  Task    35 has       2623 integration points.
  Task    36 has       2634 integration points.
  Task    37 has       2618 integration points.
  Task    38 has       2625 integration points.
  Task    39 has       2651 integration points.
  Initializing partition tables, free-atom densities, potentials, etc. across the integration grid (initialize_grid_storage).
  | initialize_grid_storage: Actual outermost partition radius vs. multipole_radius_free
  | (-- VB: in principle, multipole_radius_free should be larger, hence this output)
  | Species        1: Confinement radius =              4.999999999999999 AA, multipole_radius_free =              5.008334078144968 AA.
  | Species        1: outer_partition_radius set to              5.008334078144968 AA .
  | Species        2: Confinement radius =              4.999999999999999 AA, multipole_radius_free =              5.048384829883283 AA.
  | Species        2: outer_partition_radius set to              5.048384829883283 AA .
  | The sparse table of interatomic distances needs       3259.52 kbyte instead of      7098.91 kbyte of memory.
  | Net number of integration points:   105488
  | of which are non-zero points    :    83208
  | Numerical average free-atom electrostatic potential    :    -24.57603782 eV
  Renormalizing the initial density to the exact electron count on the 3D integration grid.
  | Initial density: Formal number of electrons (from input files) :     256.0000000000
  | Integrated number of electrons on 3D grid     :     256.0027360697
  | Charge integration error                      :       0.0027360697
  | Normalization factor for density and gradient :       0.9999893123
  Renormalizing the free-atom superposition density to the exact electron count on the 3D integration grid.
  | Formal number of electrons (from input files) :     256.0000000000
  | Integrated number of electrons on 3D grid     :     256.0027360697
  | Charge integration error                      :       0.0027360697
  | Normalization factor for density and gradient :       0.9999893123
  Obtaining max. number of non-zero basis functions in each batch (get_n_compute_maxes).
  | Maximal number of non-zero basis functions:      956 in task     0
  | Maximal number of non-zero basis functions:      984 in task     1
  | Maximal number of non-zero basis functions:      975 in task     2
  | Maximal number of non-zero basis functions:      987 in task     3
  | Maximal number of non-zero basis functions:      985 in task     4
  | Maximal number of non-zero basis functions:      981 in task     5
  | Maximal number of non-zero basis functions:     1000 in task     6
  | Maximal number of non-zero basis functions:     1002 in task     7
  | Maximal number of non-zero basis functions:      974 in task     8
  | Maximal number of non-zero basis functions:      978 in task     9
  | Maximal number of non-zero basis functions:      990 in task    10
  | Maximal number of non-zero basis functions:      971 in task    11
  | Maximal number of non-zero basis functions:      981 in task    12
  | Maximal number of non-zero basis functions:      967 in task    13
  | Maximal number of non-zero basis functions:      939 in task    14
  | Maximal number of non-zero basis functions:     1002 in task    15
  | Maximal number of non-zero basis functions:      973 in task    16
  | Maximal number of non-zero basis functions:      950 in task    17
  | Maximal number of non-zero basis functions:      974 in task    18
  | Maximal number of non-zero basis functions:      966 in task    19
  | Maximal number of non-zero basis functions:      990 in task    20
  | Maximal number of non-zero basis functions:      975 in task    21
  | Maximal number of non-zero basis functions:     1007 in task    22
  | Maximal number of non-zero basis functions:      995 in task    23
  | Maximal number of non-zero basis functions:      968 in task    24
  | Maximal number of non-zero basis functions:      983 in task    25
  | Maximal number of non-zero basis functions:     1019 in task    26
  | Maximal number of non-zero basis functions:     1007 in task    27
  | Maximal number of non-zero basis functions:      978 in task    28
  | Maximal number of non-zero basis functions:      983 in task    29
  | Maximal number of non-zero basis functions:      971 in task    30
  | Maximal number of non-zero basis functions:      989 in task    31
  | Maximal number of non-zero basis functions:      997 in task    32
  | Maximal number of non-zero basis functions:     1016 in task    33
  | Maximal number of non-zero basis functions:      963 in task    34
  | Maximal number of non-zero basis functions:      981 in task    35
  | Maximal number of non-zero basis functions:      984 in task    36
  | Maximal number of non-zero basis functions:     1002 in task    37
  | Maximal number of non-zero basis functions:      977 in task    38
  | Maximal number of non-zero basis functions:      998 in task    39
  Allocating        0.931 MB for KS_eigenvector_complex
  Integrating Hamiltonian matrix: batch-based integration.
  Time summed over all CPUs for integration: real work       19.983 s, elapsed       21.307 s
  Integrating overlap matrix.
  Time summed over all CPUs for integration: real work       13.436 s, elapsed       14.322 s
  Decreasing sparse matrix size:
  | Tolerance:  0.1000E-12
  Hamiltonian matrix
  | Array has   782543 nonzero elements out of   892741 elements
  | Sparsity factor is 0.123
  Overlap matrix
  | Array has   724744 nonzero elements out of   892741 elements
  | Sparsity factor is 0.188
  New size of hamiltonian matrix:      782615

  Updating Kohn-Sham eigenvalues and eigenvectors using ELSI and the (modified) LAPACK eigensolver.
  Singularity check in k-point 40, task 0 (analysis for other k-points/tasks may follow below):
  Overlap matrix is not singular
  | Lowest and highest eigenvalues :  0.3539E-03,  0.1016E+02
  Finished singularity check of overlap matrix
  | Time :     0.024 s
  Starting LAPACK eigensolver
  Finished Cholesky decomposition
  | Time :     0.003 s
  Finished transformation to standard eigenproblem
  | Time :     0.008 s
  Finished solving standard eigenproblem
  | Time :     0.021 s
  Finished back-transformation of eigenvectors
  | Time :     0.002 s

  Obtaining occupation numbers and chemical potential using ELSI.
  | Chemical potential (Fermi level):    -5.40674189 eV
  Writing Kohn-Sham eigenvalues.
  K-point:       1 at    0.000000    0.000000    0.000000 (in units of recip. lattice)

  State    Occupation    Eigenvalue [Ha]    Eigenvalue [eV]
      1       2.00000        -667.712202       -18169.37346
      2       2.00000        -667.712202       -18169.37346
      3       2.00000        -667.712202       -18169.37346
      4       2.00000        -667.712202       -18169.37346
      5       2.00000         -90.954851        -2475.00742
      6       2.00000         -90.954851        -2475.00742
      7       2.00000         -90.954851        -2475.00742
      8       2.00000         -90.954851        -2475.00742
      9       2.00000         -81.152842        -2208.28119
     10       2.00000         -81.152842        -2208.28119
     11       2.00000         -81.152842        -2208.28119
     12       2.00000         -81.152842        -2208.28119
     13       2.00000         -81.152826        -2208.28075
     14       2.00000         -81.152826        -2208.28075
     15       2.00000         -81.152826        -2208.28075
     16       2.00000         -81.152826        -2208.28075
     17       2.00000         -81.152810        -2208.28031
     18       2.00000         -81.152810        -2208.28031
     19       2.00000         -81.152810        -2208.28031
     20       2.00000         -81.152810        -2208.28031
     21       2.00000         -18.905721         -514.45086
     22       2.00000         -18.905721         -514.45086
     23       2.00000         -18.905721         -514.45086
     24       2.00000         -18.905721         -514.45086
     25       2.00000         -18.893552         -514.11972
     26       2.00000         -18.893552         -514.11972
     27       2.00000         -18.893552         -514.11972
     28       2.00000         -18.893552         -514.11972
     29       2.00000         -18.893532         -514.11916
     30       2.00000         -18.893532         -514.11916
     31       2.00000         -18.893532         -514.11916
     32       2.00000         -18.893532         -514.11916
     33       2.00000         -14.824824         -403.40400
     34       2.00000         -14.824824         -403.40400
     35       2.00000         -14.824824         -403.40400
     36       2.00000         -14.824824         -403.40400
     37       2.00000         -11.646198         -316.90918
     38       2.00000         -11.646198         -316.90918
     39       2.00000         -11.646198         -316.90918
     40       2.00000         -11.646198         -316.90918
     41       2.00000         -11.646010         -316.90405
     42       2.00000         -11.646010         -316.90405
     43       2.00000         -11.646010         -316.90405
     44       2.00000         -11.646010         -316.90405
     45       2.00000         -11.645821         -316.89890
     46       2.00000         -11.645821         -316.89890
     47       2.00000         -11.645821         -316.89890
     48       2.00000         -11.645821         -316.89890
     49       2.00000          -6.416801         -174.61003
     50       2.00000          -6.416801         -174.61003
     51       2.00000          -6.416801         -174.61003
     52       2.00000          -6.416801         -174.61003
     53       2.00000          -6.416782         -174.60951
     54       2.00000          -6.416781         -174.60951
     55       2.00000          -6.416781         -174.60951
     56       2.00000          -6.416781         -174.60951
     57       2.00000          -6.416629         -174.60535
     58       2.00000          -6.416629         -174.60535
     59       2.00000          -6.416629         -174.60535
     60       2.00000          -6.416629         -174.60535
     61       2.00000          -6.416512         -174.60218
     62       2.00000          -6.416512         -174.60218
     63       2.00000          -6.416512         -174.60218
     64       2.00000          -6.416512         -174.60218
     65       2.00000          -6.416463         -174.60085
     66       2.00000          -6.416463         -174.60085
     67       2.00000          -6.416463         -174.60085
     68       2.00000          -6.416463         -174.60085
     69       2.00000          -2.014278          -54.81128
     70       2.00000          -2.010261          -54.70198
     71       2.00000          -2.009794          -54.68927
     72       2.00000          -2.009761          -54.68838
     73       2.00000          -1.306091          -35.54053
     74       2.00000          -1.289739          -35.09557
     75       2.00000          -1.284251          -34.94625
     76       2.00000          -1.268549          -34.51897
     77       2.00000          -1.246145          -33.90933
     78       2.00000          -1.242826          -33.81901
     79       2.00000          -1.239667          -33.73307
     80       2.00000          -1.226404          -33.37215
     81       2.00000          -1.223298          -33.28764
     82       2.00000          -1.219799          -33.19241
     83       2.00000          -1.212540          -32.99489
     84       2.00000          -1.209154          -32.90276
     85       2.00000          -1.199160          -32.63080
     86       2.00000          -1.191498          -32.42231
     87       2.00000          -1.178492          -32.06841
     88       2.00000          -1.167132          -31.75927
     89       2.00000          -1.045877          -28.45975
     90       2.00000          -1.026531          -27.93334
     91       2.00000          -1.016977          -27.67334
     92       2.00000          -1.002848          -27.28888
     93       2.00000          -0.949769          -25.84454
     94       2.00000          -0.912227          -24.82295
     95       2.00000          -0.900330          -24.49924
     96       2.00000          -0.832529          -22.65428
     97       2.00000          -0.711460          -19.35982
     98       2.00000          -0.700453          -19.06028
     99       2.00000          -0.690844          -18.79882
    100       2.00000          -0.667216          -18.15586
    101       2.00000          -0.645675          -17.56970
    102       2.00000          -0.626363          -17.04421
    103       2.00000          -0.621202          -16.90375
    104       2.00000          -0.593547          -16.15124
    105       2.00000          -0.578992          -15.75516
    106       2.00000          -0.576736          -15.69379
    107       2.00000          -0.576690          -15.69253
    108       2.00000          -0.571203          -15.54323
    109       2.00000          -0.551749          -15.01387
    110       2.00000          -0.540325          -14.70299
    111       2.00000          -0.539289          -14.67481
    112       2.00000          -0.519275          -14.13019
    113       2.00000          -0.511066          -13.90681
    114       2.00000          -0.509139          -13.85439
    115       2.00000          -0.506165          -13.77345
    116       2.00000          -0.505603          -13.75816
    117       2.00000          -0.480937          -13.08695
    118       2.00000          -0.479202          -13.03976
    119       2.00000          -0.476692          -12.97145
    120       2.00000          -0.473517          -12.88505
    121       2.00000          -0.448957          -12.21674
    122       2.00000          -0.443882          -12.07864
    123       2.00000          -0.421345          -11.46539
    124       2.00000          -0.394689          -10.74005
    125       2.00000          -0.373963          -10.17605
    126       2.00000          -0.366449           -9.97158
    127       2.00000          -0.334637           -9.10592
    128       2.00000          -0.310090           -8.43798
    129       0.00000          -0.180151           -4.90217
    130       0.00000          -0.169850           -4.62185
    131       0.00000          -0.154933           -4.21594
    132       0.00000          -0.149623           -4.07146
    133       0.00000          -0.134928           -3.67157
    134       0.00000          -0.131045           -3.56592
    135       0.00000          -0.130028           -3.53825
    136       0.00000          -0.119237           -3.24461
    137       0.00000          -0.117574           -3.19936
    138       0.00000          -0.096549           -2.62723
    139       0.00000          -0.070748           -1.92515
    140       0.00000          -0.060882           -1.65667
    141       0.00000          -0.060039           -1.63374
    142       0.00000          -0.053497           -1.45572
    143       0.00000          -0.053260           -1.44928
    144       0.00000          -0.052332           -1.42403
    145       0.00000          -0.046176           -1.25652
    146       0.00000          -0.038044           -1.03524
    147       0.00000          -0.018199           -0.49522
    148       0.00000          -0.017031           -0.46344
    149       0.00000           0.007284            0.19822
    150       0.00000           0.039180            1.06615
    151       0.00000           0.048256            1.31312
    152       0.00000           0.078381            2.13285
    153       0.00000           0.090017            2.44949
    154       0.00000           0.121843            3.31553
    155       0.00000           0.147568            4.01553
    156       0.00000           0.182345            4.96187
    157       0.00000           0.209893            5.71147
    158       0.00000           0.227518            6.19108
    159       0.00000           0.253444            6.89656
    160       0.00000           0.263930            7.18190
    161       0.00000           0.304347            8.28171
    162       0.00000           0.324793            8.83805
    163       0.00000           0.333412            9.07260
    164       0.00000           0.334207            9.09423
    165       0.00000           0.352615            9.59514
    166       0.00000           0.368797           10.03547
    167       0.00000           0.431567           11.74354
    168       0.00000           0.434619           11.82657
    169       0.00000           0.434926           11.83495
    170       0.00000           0.456119           12.41164
    171       0.00000           0.465645           12.67083
    172       0.00000           0.485357           13.20724
    173       0.00000           0.486517           13.23881
    174       0.00000           0.507568           13.81164
    175       0.00000           0.520416           14.16125
    176       0.00000           0.545579           14.84596
    177       0.00000           0.565345           15.38382
    178       0.00000           0.605040           16.46396
    179       0.00000           0.607717           16.53681
    180       0.00000           0.611602           16.64253
    181       0.00000           0.653659           17.78695
    182       0.00000           0.659022           17.93291
    183       0.00000           0.670769           18.25256
    184       0.00000           0.684009           18.61284
    185       0.00000           0.688172           18.72611
    186       0.00000           0.690083           18.77812

  What follows are estimated values for band gap, HOMO, LUMO, etc.
  | They are estimated on a discrete k-point grid and not necessarily exact.
  | For converged numbers, create a DOS and/or band structure plot on a denser k-grid.

  Highest occupied state (VBM) at     -8.43176843 eV (relative to internal zero)
  | Occupation number:      2.00000000
  | K-point:      27 at    0.400000    0.000000    0.000000 (in units of recip. lattice)

  Lowest unoccupied state (CBM) at    -4.96062211 eV (relative to internal zero)
  | Occupation number:      0.00000000
  | K-point:      28 at    0.400000    0.000000    0.200000 (in units of recip. lattice)

  ESTIMATED overall HOMO-LUMO gap:      3.47114632 eV between HOMO at k-point 27 and LUMO at k-point 28
  | This appears to be an indirect band gap.
  | Smallest direct gap :      3.50709613 eV for k_point 27 at    0.400000    0.000000    0.000000 (in units of recip. lattice)
  The gap value is above 0.2 eV. Unless you are using a very sparse k-point grid,
  this system is most likely an insulator or a semiconductor.
  Calculating total energy contributions from superposition of free atom densities.

  Total energy components:
  | Sum of eigenvalues            :       -9229.74491166 Ha     -251154.13762805 eV
  | XC energy correction          :        -539.73371258 Ha      -14686.90158064 eV
  | XC potential correction       :         714.64096536 Ha       19446.37008795 eV
  | Free-atom electrostatic energy:       -6348.54085861 Ha     -172752.58631759 eV
  | Hartree energy correction     :           0.00000000 Ha           0.00000000 eV
  | DFT+U energy correction       :           0.00000000 Ha           0.00000000 eV
  | Entropy correction            :          -0.00000000 Ha          -0.00000000 eV
  | ---------------------------
  | Total energy                  :      -15403.37851749 Ha     -419147.25543833 eV
  | Total energy, T -> 0          :      -15403.37851749 Ha     -419147.25543833 eV  <-- do not rely on this value for anything but (periodic) metals
  | Electronic free energy        :      -15403.37851749 Ha     -419147.25543833 eV

  Derived energy quantities:
  | Kinetic energy                :       15808.30270827 Ha      430165.80328713 eV
  | Electrostatic energy          :      -30671.94751318 Ha     -834626.15714483 eV
  | Energy correction for multipole
  | error in Hartree potential    :           0.00000000 Ha           0.00000000 eV
  | Sum of eigenvalues per atom                           :      -15697.13360175 eV
  | Total energy (T->0) per atom                          :      -26196.70346490 eV  <-- do not rely on this value for anything but (periodic) metals
  | Electronic free energy per atom                       :      -26196.70346490 eV
  Initialize hartree_potential_storage
  Max. number of atoms included in rho_multipole:           16

  End scf initialization - timings             :  max(cpu_time)    wall_clock(cpu1)
  | Time for scf. initialization               :        2.660 s           2.667 s
  | Boundary condition initialization          :        0.212 s           0.212 s
  | Relaxation initialization                  :        0.053 s           0.053 s
  | Integration                                :        0.967 s           0.965 s
  | Solution of K.-S. eqns.                    :        0.199 s           0.133 s
  | Grid partitioning                          :        0.061 s           0.061 s
  | Preloading free-atom quantities on grid    :        0.380 s           0.380 s
  | Free-atom superposition energy             :        0.034 s           0.034 s
  | Total energy evaluation                    :        0.001 s           0.001 s

  Partial memory accounting:
  | Current value for overall tracked memory usage:
  |   Minimum:       15.875 MB (on task 24)
  |   Maximum:       16.806 MB (on task  1)
  |   Average:       16.131 MB
  | Peak value for overall tracked memory usage:
  |   Minimum:       32.203 MB (on task 14 after allocating wave)
  |   Maximum:       34.570 MB (on task  7 after allocating wave)
  |   Average:       33.457 MB
  | Largest tracked array allocation so far:
  |   Minimum:        6.811 MB (overlap_matrix on task 14)
  |   Maximum:        7.922 MB (hamiltonian_shell on task 26)
  |   Average:        7.376 MB
  Note:  These values currently only include a subset of arrays which are explicitly tracked.
  The "true" memory usage will be greater.
------------------------------------------------------------
  Evaluating new KS density using the density matrix
  Evaluating density matrix
  Time summed over all CPUs for getting density from density matrix: real work       39.283 s, elapsed       41.286 s
  Integration grid: deviation in total charge (<rho> - N_e) =   1.614353E-11

  Time for density update prior                :  max(cpu_time)    wall_clock(cpu1)
  | self-consistency iterative process         :        1.064 s           1.066 s

------------------------------------------------------------
          Begin self-consistency iteration #    1

  Date     :  20240810, Time     :  161555.337
------------------------------------------------------------
  Pulay mixing of updated and previous charge densities.
  Renormalizing the density to the exact electron count on the 3D integration grid.
  | Formal number of electrons (from input files) :     256.0000000000
  | Integrated number of electrons on 3D grid     :     255.9985723228
  | Charge integration error                      :      -0.0014276772
  | Normalization factor for density and gradient :       1.0000055769

  Evaluating partitioned Hartree potential by multipole expansion.
  | Original multipole sum: apparent total charge =  -0.368659E-14
  | Sum of charges compensated after spline to logarithmic grids =  -0.883876E-06
  | Analytical far-field extrapolation by fixed multipoles:
  | Hartree multipole sum: apparent total charge =  -0.378498E-14
  Summing up the Hartree potential.
  Time summed over all CPUs for potential: real work        7.966 s, elapsed        8.496 s
  | RMS charge density error from multipole expansion :   0.233992E-02
  | Average real-space part of the electrostatic potential :      0.06958238 eV

  Integrating Hamiltonian matrix: batch-based integration.
  Time summed over all CPUs for integration: real work       29.751 s, elapsed       31.146 s
  ----------------------------------------------------------------
  Adding Hubbard correction to Hamiltonian
  ----------------------------------------------------------------
  !--Definition for DFT+U occupation matrix is:    'on-site'
  correlated subspace  1      |  U =   1.84 eV
   avg. occ. hubbard projectors:  0.0659
   petukhov mixing factor      :  1.0000
  ----------------------------------------------------------------
   occupation matrix (subspace #           1 , spin            1 )
   0.05181   0.00000  -0.00181  -0.00000  -0.01494
   0.00000   0.08316  -0.00000  -0.00475  -0.00000
  -0.00181  -0.00000   0.07314   0.00000   0.00090
  -0.00000  -0.00475   0.00000   0.08161  -0.00000
  -0.01494  -0.00000   0.00090  -0.00000   0.03969
  ----------------------------------------------------------------
  correlated subspace  2      |  U =   1.84 eV
   avg. occ. hubbard projectors:  0.0659
   petukhov mixing factor      :  1.0000
  ----------------------------------------------------------------
   occupation matrix (subspace #           2 , spin            1 )
   0.05181   0.00000  -0.00181  -0.00000  -0.01494
   0.00000   0.08316  -0.00000  -0.00475  -0.00000
  -0.00181  -0.00000   0.07314   0.00000   0.00090
  -0.00000  -0.00475   0.00000   0.08161  -0.00000
  -0.01494  -0.00000   0.00090  -0.00000   0.03969
  ----------------------------------------------------------------
  correlated subspace  3      |  U =   1.84 eV
   avg. occ. hubbard projectors:  0.0659
   petukhov mixing factor      :  1.0000
  ----------------------------------------------------------------
   occupation matrix (subspace #           3 , spin            1 )
   0.05181   0.00000   0.00181   0.00000   0.01494
   0.00000   0.08316   0.00000   0.00475   0.00000
   0.00181   0.00000   0.07314   0.00000   0.00090
   0.00000   0.00475   0.00000   0.08161  -0.00000
   0.01494   0.00000   0.00090  -0.00000   0.03969
  ----------------------------------------------------------------
  correlated subspace  4      |  U =   1.84 eV
   avg. occ. hubbard projectors:  0.0659
   petukhov mixing factor      :  1.0000
  ----------------------------------------------------------------
   occupation matrix (subspace #           4 , spin            1 )
   0.05181   0.00000   0.00181   0.00000   0.01494
   0.00000   0.08316   0.00000   0.00475   0.00000
   0.00181   0.00000   0.07314   0.00000   0.00090
   0.00000   0.00475   0.00000   0.08161  -0.00000
   0.01494   0.00000   0.00090  -0.00000   0.03969
  ----------------------------------------------------------------
  correlated subspace  5      |  U =   0.00 eV
   avg. occ. hubbard projectors:  1.6308
   petukhov mixing factor      :  1.0000
  ----------------------------------------------------------------
   occupation matrix (subspace #           5 , spin            1 )
   2.05121   0.04539  -0.02841
   0.04539   0.87322   0.05799
  -0.02841   0.05799   1.96809
  ----------------------------------------------------------------
  correlated subspace  6      |  U =   0.00 eV
   avg. occ. hubbard projectors:  1.6308
   petukhov mixing factor      :  1.0000
  ----------------------------------------------------------------
   occupation matrix (subspace #           6 , spin            1 )
   2.05122  -0.04534  -0.02840
  -0.04534   0.87322  -0.05805
  -0.02840  -0.05805   1.96805
  ----------------------------------------------------------------
  correlated subspace  7      |  U =   0.00 eV
   avg. occ. hubbard projectors:  1.6308
   petukhov mixing factor      :  1.0000
  ----------------------------------------------------------------
   occupation matrix (subspace #           7 , spin            1 )
   2.05123   0.04528   0.02839
   0.04528   0.87321  -0.05807
   0.02839  -0.05807   1.96805
  ----------------------------------------------------------------
  correlated subspace  8      |  U =   0.00 eV
   avg. occ. hubbard projectors:  1.6308
   petukhov mixing factor      :  1.0000
  ----------------------------------------------------------------
   occupation matrix (subspace #           8 , spin            1 )
   2.05120  -0.04545   0.02842
  -0.04545   0.87323   0.05797
   0.02842   0.05797   1.96810
  ----------------------------------------------------------------
  correlated subspace  9      |  U =   0.00 eV
   avg. occ. hubbard projectors:  1.6308
   petukhov mixing factor      :  1.0000
  ----------------------------------------------------------------
   occupation matrix (subspace #           9 , spin            1 )
   2.05121   0.04540  -0.02841
   0.04540   0.87322   0.05799
  -0.02841   0.05799   1.96809
  ----------------------------------------------------------------
  correlated subspace 10      |  U =   0.00 eV
   avg. occ. hubbard projectors:  1.6308
   petukhov mixing factor      :  1.0000
  ----------------------------------------------------------------
   occupation matrix (subspace #          10 , spin            1 )
   2.05122  -0.04534  -0.02840
  -0.04534   0.87322  -0.05805
  -0.02840  -0.05805   1.96805
  ----------------------------------------------------------------
  correlated subspace 11      |  U =   0.00 eV
   avg. occ. hubbard projectors:  1.6308
   petukhov mixing factor      :  1.0000
  ----------------------------------------------------------------
   occupation matrix (subspace #          11 , spin            1 )
   2.05123   0.04528   0.02839
   0.04528   0.87320  -0.05807
   0.02839  -0.05807   1.96804
  ----------------------------------------------------------------
  correlated subspace 12      |  U =   0.00 eV
   avg. occ. hubbard projectors:  1.6308
   petukhov mixing factor      :  1.0000
  ----------------------------------------------------------------
   occupation matrix (subspace #          12 , spin            1 )
   2.05120  -0.04545   0.02842
  -0.04545   0.87323   0.05797
   0.02842   0.05797   1.96810
  ----------------------------------------------------------------
  correlated subspace 13      |  U =   0.00 eV
   avg. occ. hubbard projectors:  1.7838
   petukhov mixing factor      :  1.0000
  ----------------------------------------------------------------
   occupation matrix (subspace #          13 , spin            1 )
   1.76229  -0.00631   0.00001
  -0.00631   1.78139   0.00000
   0.00001   0.00000   1.80774
  ----------------------------------------------------------------
  correlated subspace 14      |  U =   0.00 eV
   avg. occ. hubbard projectors:  1.7838
   petukhov mixing factor      :  1.0000
[...]
    131       0.00000          -0.143119           -3.89446
    132       0.00000          -0.136968           -3.72709
    133       0.00000          -0.129136           -3.51396
    134       0.00000          -0.125395           -3.41218
    135       0.00000          -0.118413           -3.22217
    136       0.00000          -0.109918           -2.99102
    137       0.00000          -0.093403           -2.54163
    138       0.00000          -0.074886           -2.03776
    139       0.00000          -0.064971           -1.76796
    140       0.00000          -0.063445           -1.72642
    141       0.00000          -0.062337           -1.69629
    142       0.00000          -0.056382           -1.53424
    143       0.00000          -0.051241           -1.39435
    144       0.00000          -0.036989           -1.00651
    145       0.00000          -0.036098           -0.98228
    146       0.00000          -0.023489           -0.63916
    147       0.00000          -0.018434           -0.50160
    148       0.00000           0.019848            0.54008
    149       0.00000           0.057225            1.55717
    150       0.00000           0.086602            2.35657
    151       0.00000           0.091805            2.49814
    152       0.00000           0.126238            3.43510
    153       0.00000           0.132936            3.61736
    154       0.00000           0.168885            4.59561
    155       0.00000           0.188744            5.13599
    156       0.00000           0.250652            6.82059
    157       0.00000           0.272289            7.40936
    158       0.00000           0.283139            7.70461
    159       0.00000           0.322333            8.77113
    160       0.00000           0.336722            9.16267
    161       0.00000           0.358057            9.74323
    162       0.00000           0.387034           10.53172
    163       0.00000           0.399068           10.85919
    164       0.00000           0.400567           10.89998
    165       0.00000           0.434715           11.82919
    166       0.00000           0.437631           11.90853
    167       0.00000           0.458187           12.46790
    168       0.00000           0.470809           12.81135
    169       0.00000           0.500464           13.61832
    170       0.00000           0.504372           13.72466
    171       0.00000           0.542686           14.76723
    172       0.00000           0.547327           14.89352
    173       0.00000           0.559156           15.21541
    174       0.00000           0.561785           15.28695
    175       0.00000           0.588648           16.01793
    176       0.00000           0.596895           16.24235
    177       0.00000           0.610979           16.62559
    178       0.00000           0.649546           17.67504
    179       0.00000           0.674293           18.34845
    180       0.00000           0.700442           19.05999
    181       0.00000           0.703622           19.14652
    182       0.00000           0.730092           19.86682
    183       0.00000           0.731552           19.90655
    184       0.00000           0.744971           20.27171
    185       0.00000           0.746934           20.32512
    186       0.00000           0.753964           20.51640

  What follows are estimated values for band gap, HOMO, LUMO, etc.
  | They are estimated on a discrete k-point grid and not necessarily exact.
  | For converged numbers, create a DOS and/or band structure plot on a denser k-grid.

  Highest occupied state (VBM) at     -6.38737412 eV (relative to internal zero)
  | Occupation number:      2.00000000
  | K-point:      27 at    0.400000    0.000000    0.000000 (in units of recip. lattice)

  Lowest unoccupied state (CBM) at    -4.85491030 eV (relative to internal zero)
  | Occupation number:      0.00000000
  | K-point:      27 at    0.400000    0.000000    0.000000 (in units of recip. lattice)

  ESTIMATED overall HOMO-LUMO gap:      1.53246381 eV between HOMO at k-point 27 and LUMO at k-point 27
  | This appears to be a direct band gap.
  The gap value is above 0.2 eV. Unless you are using a very sparse k-point grid,
  this system is most likely an insulator or a semiconductor.
  | Chemical Potential                          :    -5.28935677 eV

  Self-consistency cycle converged.


------------------------------------------------------------
  End self-consistency iteration #    10       :  max(cpu_time)    wall_clock(cpu1)
  | Time for this iteration                    :       12.594 s          12.621 s
  | Charge density & force component update    :       10.573 s          10.598 s
  | Density mixing                             :        0.007 s           0.002 s
  | Hartree multipole update                   :        0.002 s           0.002 s
  | Hartree multipole summation                :        0.689 s           0.690 s
  | Hartree pot. SCF incomplete forces         :        0.424 s           0.425 s
  | Integration                                :        0.812 s           0.814 s
  | Solution of K.-S. eqns.                    :        0.086 s           0.086 s
  | Total energy evaluation                    :        0.000 s           0.000 s

  Partial memory accounting:
  | Current value for overall tracked memory usage:
  |   Minimum:       16.830 MB (on task 24)
  |   Maximum:       18.694 MB (on task  1)
  |   Average:       17.343 MB
  | Peak value for overall tracked memory usage:
  |   Minimum:       40.789 MB (on task 18 after allocating d_wave)
  |   Maximum:       44.919 MB (on task  2 after allocating d_wave)
  |   Average:       42.116 MB
  | Largest tracked array allocation so far:
  |   Minimum:        7.090 MB (density_matrix_con on task 17)
  |   Maximum:        8.110 MB (density_matrix_con on task 36)
  |   Average:        7.533 MB
  Note:  These values currently only include a subset of arrays which are explicitly tracked.
  The "true" memory usage will be greater.
------------------------------------------------------------
  Removing unitary transformations (pure translations, rotations) from forces on atoms.
  Atomic forces before filtering:
  | Net force on center of mass :  -0.115380E-06  0.868200E-06 -0.153250E-05 eV/A
  Atomic forces after filtering:
  | Net force on center of mass :   0.609787E-18 -0.609787E-18  0.209070E-17 eV/A

  Energy and forces in a compact form:
  | Total energy uncorrected      :         -0.420198618300924E+06 eV
  | Total energy corrected        :         -0.420198618300924E+06 eV  <-- do not rely on this value for anything but (periodic) metals
  | Electronic free energy        :         -0.420198618300924E+06 eV
  Total atomic forces (unitary forces cleaned) [eV/Ang]:
  |    1          0.615019971920125E-04         -0.273622614401175E-02         -0.683542863319273E-03
  |    2         -0.618505495477904E-04          0.273621257421179E-02          0.703362736682482E-03
  |    3          0.617925403502516E-04          0.273533947570982E-02         -0.691289232724063E-03
  |    4         -0.615550457885339E-04         -0.273483544832999E-02          0.696185904190706E-03
  |    5          0.156159814805968E-02          0.522384494123509E-02         -0.381283252805496E-02
  |    6          0.109609903114664E-02         -0.132667618820083E-02         -0.296885056046680E-02
  |    7         -0.176285230751569E-02          0.457835408382190E-03          0.300274018955542E-02
  |    8         -0.238785990290688E-02          0.735104710404736E-02          0.376442248456610E-02
  |    9         -0.166046709762679E-02         -0.542885329570133E-02          0.380149881573230E-02
  |   10         -0.997234802864871E-03          0.153130647156279E-02          0.295775947468978E-02
  |   11          0.182393931371545E-02         -0.596234862804423E-03         -0.300458814645702E-02
  |   12          0.232677757393472E-02         -0.721262588555695E-02         -0.376637201891272E-02
  |   13          0.270505738405045E-03          0.329724063878388E-03          0.468663234602494E-03
  |   14         -0.608175166242390E-03          0.316804965034961E-03         -0.467964675831765E-03
  |   15         -0.271887914734076E-03         -0.316869138205648E-03         -0.468029805212436E-03
  |   16          0.609668444423232E-03         -0.329794041251466E-03          0.468836990959766E-03

  ------------------------------------ 
  Start decomposition of the XC Energy 
  ------------------------------------ 
  X and C from original XC functional choice 
  Hartree-Fock Energy :          0.000000000 Ha              0.000000000 eV
  X Energy            :       -567.423601353 Ha         -15440.381790788 eV
  C Energy            :        -13.389179851 Ha           -364.338121061 eV
  Total XC Energy     :       -580.812781204 Ha         -15804.719911849 eV
  ------------------------------------ 
  LDA X and C from self-consistent density 
  X Energy LDA        :       -519.799152108 Ha         -14144.454590794 eV
  C Energy LDA        :        -21.646726561 Ha           -589.037399608 eV
  ------------------------------------ 
  End decomposition of the XC Energy 
  ------------------------------------ 

------------------------------------------------------------
  Relaxation / MD: End force evaluation.       :  max(cpu_time)    wall_clock(cpu1)
  | Time for this force evaluation             :       46.730 s          47.259 s

------------------------------------------------------------
  Geometry optimization: Attempting to predict improved coordinates.

  Removing unitary transformations (pure translations, rotations) from forces on atoms.
  Atomic forces before filtering:
  | Net force on center of mass :   0.609787E-18 -0.609787E-18  0.209070E-17 eV/A
  Atomic forces after filtering:
  | Net force on center of mass :   0.609787E-18 -0.261337E-18  0.209070E-17 eV/A
  Net remaining forces (excluding translations, rotations) in present geometry:
  || Forces on atoms   || =   0.735105E-02 eV/A.
  Maximum force component is  0.735105E-02 eV/A.
  Present geometry is converged.

------------------------------------------------------------
  Final atomic structure:
                         x [A]             y [A]             z [A]
  lattice_vector         5.00500000        0.00000000        0.00000000
  lattice_vector         0.00000000        5.23500000        0.00000000
  lattice_vector         0.00000000        0.00000000        5.05100000

            atom         1.40672983        2.49566443        3.78822100  Zr
            atom         3.59827019        2.73933559        1.26277956  Zr
            atom         1.40672981        0.12183558        1.26272150  Zr
            atom         3.59827017        5.11316441        3.78827822  Zr
            atom         0.62536857        0.47969666        3.12765146  O
            atom         4.37967707        4.75539622        0.60224566  O
            atom         0.62530824        2.13795403        1.92324900  O
            atom         4.37961170        3.09726698        4.44885357  O
            atom         4.37962835        4.75529603        1.92334771  O
            atom         0.62532600        0.47961110        4.44875350  O
            atom         4.37969371        3.09704074        3.12775154  O
            atom         0.62538635        2.13773824        0.60214696  O
            atom         2.22295459        3.92624314        0.00001798  O
            atom         2.78201108        1.30874233        2.52548218  O
            atom         2.78204577        1.30875767       -0.00001781  O
            atom         2.22298856        3.92625686        2.52551797  O

  Fractional coordinates:
                         L1                L2                L3
       atom_frac         0.28106490        0.47672673        0.74999426  Zr
       atom_frac         0.71893510        0.52327327        0.25000585  Zr
       atom_frac         0.28106490        0.02327327        0.24999436  Zr
       atom_frac         0.71893510        0.97672673        0.75000559  Zr
       atom_frac         0.12494877        0.09163260        0.61921431  O
       atom_frac         0.87506035        0.90838514        0.11923296  O
       atom_frac         0.12493671        0.40839618        0.38076599  O
       atom_frac         0.87504729        0.59164603        0.88078669  O
       atom_frac         0.87505062        0.90836600        0.38078553  O
       atom_frac         0.12494026        0.09161626        0.88076688  O
       atom_frac         0.87506368        0.59160282        0.61923412  O
       atom_frac         0.12495232        0.40835496        0.11921342  O
       atom_frac         0.44414677        0.74999869        0.00000356  O
       atom_frac         0.55584637        0.24999854        0.49999647  O
       atom_frac         0.55585330        0.25000146       -0.00000353  O
       atom_frac         0.44415356        0.75000131        0.50000356  O
------------------------------------------------------------

------------------------------------------------------------------------------
  Final output of selected total energy values:

  The following output summarizes some interesting total energy values
  at the end of a run (AFTER all relaxation, molecular dynamics, etc.).

  | Total energy of the DFT / Hartree-Fock s.c.f. calculation      :        -420198.618300924 eV
  | Final zero-broadening corrected energy (caution - metals only) :        -420198.618300924 eV
  | For reference only, the value of 1 Hartree used in FHI-aims is :             27.211384500 eV
  | For reference only, the overall average (free atom contribution
  | + realspace contribution) of the electrostatic potential after
  | s.c.f. convergence is                                          :            -23.322462234 eV

  Before relying on these values, please be sure to understand exactly which
  total energy value is referred to by a given number. Different objects may
  all carry the same name 'total energy'. Definitions:

  Total energy of the DFT / Hartree-Fock s.c.f. calculation:
  | Note that this energy does not include ANY quantities calculated after the
  | s.c.f. cycle, in particular not ANY RPA, MP2, etc. many-body perturbation terms.

  Final zero-broadening corrected energy:
  | For metallic systems only, a broadening of the occupation numbers at the Fermi
  | level can be extrapolated back to zero broadening by an electron-gas inspired
  | formula. For all systems that are not real metals, this value can be
  | meaningless and should be avoided.

------------------------------------------------------------------------------
  Methods described in the following list of references were used in this FHI-aims run.
  If you publish the results, please make sure to cite these reference if they apply.
  FHI-aims is an academic code, and for our developers (often, Ph.D. students
  and postdocs), scientific credit in the community is essential.
  Thank you for helping us!

  For any use of FHI-aims, please cite:

    Volker Blum, Ralf Gehrke, Felix Hanke, Paula Havu, Ville Havu,
    Xinguo Ren, Karsten Reuter, and Matthias Scheffler
    'Ab initio molecular simulations with numeric atom-centered orbitals'
    Computer Physics Communications 180, 2175-2196 (2009)
    http://dx.doi.org/10.1016/j.cpc.2009.06.022


  The provided symmetry information was generated with SPGlib:

    Atsushi Togo, Yusuke Seto, Dimitar Pashov
    SPGlib 1.7.3 obtained from http://spglib.sourceforge.net
    Copyright (C) 2008 Atsushi Togo


 DFT+U infrastructure was used in your run
 please cite:

 Matthias Kick, Karsten Reuter and Harald Oberhofer,
 Intricacies Of DFT+U, not only in a Numeric Atom Centered Orbital Framework

 Journal of Chemical Theory and Computation
 https://


  The ELSI infrastructure was used in your run to solve the Kohn-Sham electronic structure.
  Please check out http://elsi-interchange.org to learn more.
  If scalability is important for your project, please acknowledge ELSI by citing:

    V. W-z. Yu, F. Corsetti, A. Garcia, W. P. Huhn, M. Jacquelin, W. Jia,
    B. Lange, L. Lin, J. Lu, W. Mi, A. Seifitokaldani, A. Vazquez-Mayagoitia,
    C. Yang, H. Yang, and V. Blum
    'ELSI: A unified software interface for Kohn-Sham electronic structure solvers'
    Computer Physics Communications 222, 267-285 (2018).
    http://dx.doi.org/10.1016/j.cpc.2017.09.007


  For the real-space grid partitioning and parallelization used in this calculation, please cite:

    Ville Havu, Volker Blum, Paula Havu, and Matthias Scheffler,
    'Efficient O(N) integration for all-electron electronic structure calculation'
    'using numerically tabulated basis functions'
    Journal of Computational Physics 228, 8367-8379 (2009).
    http://dx.doi.org/10.1016/j.jcp.2009.08.008

  Of course, there are many other important community references, e.g., those cited in the
  above references. Our list is limited to references that describe implementations in the
  FHI-aims code. The reason is purely practical (length of this list) - please credit others as well.

------------------------------------------------------------
          Leaving FHI-aims.
          Date     :  20240810, Time     :  161804.832

          Computational steps:
          | Number of self-consistency cycles          :           36
          | Number of SCF (re)initializations          :            2
          | Number of relaxation steps                 :            1

          Detailed time accounting                     :  max(cpu_time)    wall_clock(cpu1)
          | Total time                                 :      133.152 s         133.808 s
          | Preparation time                           :        0.462 s           0.462 s
          | Boundary condition initalization           :        0.311 s           0.311 s
          | Grid partitioning                          :        0.122 s           0.118 s
          | Preloading free-atom quantities on grid    :        0.726 s           0.727 s
          | Free-atom superposition energy             :        0.066 s           0.065 s
          | Total time for integrations                :       30.886 s          30.982 s
          | Total time for solution of K.-S. equations :        3.328 s           3.268 s
          | Total time for EV reorthonormalization     :        0.025 s           0.013 s
          | Total time for density & force components  :       77.834 s          78.022 s
          | Total time for mixing & preconditioning    :        6.365 s           6.173 s
          | Total time for Hartree multipole update    :        0.062 s           0.060 s
          | Total time for Hartree multipole sum       :       10.261 s          10.286 s
          | Total time for total energy evaluation     :        0.021 s           0.018 s
          | Total time NSC force correction            :        1.695 s           1.698 s
          | Total time for scaled ZORA corrections     :        0.000 s           0.000 s

          Partial memory accounting:
          | Residual value for overall tracked memory usage across tasks:     0.000000 MB (should be 0.000000 MB)
          | Peak values for overall tracked memory usage:
          |   Minimum:       40.789 MB (on task 18 after allocating d_wave)
          |   Maximum:       44.919 MB (on task  2 after allocating d_wave)
          |   Average:       42.116 MB
          | Largest tracked array allocation:
          |   Minimum:        7.090 MB (density_matrix_con on task 17)
          |   Maximum:        8.110 MB (density_matrix_con on task 36)
          |   Average:        7.533 MB
          Note:  These values currently only include a subset of arrays which are explicitly tracked.
          The "true" memory usage will be greater.

          Have a nice day.
------------------------------------------------------------
