------------------------------------------------------------
          Invoking FHI-aims ...

          When using FHI-aims, please cite the following reference:

            Volker Blum, Ralf Gehrke, Felix Hanke, Paula Havu,
            Ville Havu, Xinguo Ren, Karsten Reuter, and Matthias Scheffler,
            'Ab Initio Molecular Simulations with Numeric Atom-Centered Orbitals',
            Computer Physics Communications 180, 2175-2196 (2009)

          In addition, many other developments in FHI-aims are likely important for
          your particular application. A partial list of references is given at the end of
          this file. Thank you for giving credit to the authors of these developments.

          For any questions about FHI-aims, please visit our slack channel at

            https://fhi-aims.slack.com

          and our main development and support site at

            https://aims-git.rz-berlin.mpg.de .

          The latter site, in particular, has a wiki to collect information, as well
          as an issue tracker to log discussions, suggest improvements, and report issues
          or bugs. https://aims-git.rz-berlin.mpg.de is also the main development site
          of the project and all new and updated code versions can be obtained there.
          Please send an email to aims-coordinators@fhi-berlin.mpg.de and we will add
          you to these sites. They are for you and everyone is welcome there.

------------------------------------------------------------



  Date     :  20240509, Time     :  055250.175
  Time zero on CPU 1             :   0.289433000000000E+00  s.
  Internal wall clock time zero  :           484465970.175  s.

  FHI-aims created a unique identifier for this run for later identification
  aims_uuid : A4519AAE-C9D6-43D1-AA55-3EF552AD1198

  Build configuration of the current instance of FHI-aims
  -------------------------------------------------------
  FHI-aims version      : 210309
  Commit number         : 8cf946fba
  CMake host system     : Linux-3.10.0-1127.13.1.el7.x86_64
  CMake version         : 3.17.3
  Fortran compiler      : /apps/compilers/intel/2018.2/compilers_and_libraries_2018/linux/mpi/intel64/bin/mpiifort (Intel) version 18.0.2.20180210
  Fortran compiler flags: -O3 -fp-model precise
  C compiler            : /apps/compilers/intel/2018.2/compilers_and_libraries_2018/linux/mpi/intel64/bin/mpicc (Intel) version 18.0.2.20180210
  C compiler flags      : -O3 -ip -fp-model precise -std=gnu99
  Using MPI
  Using ScaLAPACK
  Using LibXC
  Using i-PI
  Using RLSY
  Linking against: /apps/compilers/intel/2018.2/compilers_and_libraries_2018/linux/mkl/lib/intel64/libmkl_scalapack_lp64.so
                   /apps/compilers/intel/2018.2/compilers_and_libraries_2018/linux/mkl/lib/intel64/libmkl_blacs_intelmpi_lp64.so
                   /apps/compilers/intel/2018.2/compilers_and_libraries_2018/linux/mkl/lib/intel64/libmkl_intel_lp64.so
                   /apps/compilers/intel/2018.2/compilers_and_libraries_2018/linux/mkl/lib/intel64/libmkl_intel_thread.so
                   /apps/compilers/intel/2018.2/compilers_and_libraries_2018/linux/mkl/lib/intel64/libmkl_core.so
                   /usr/lib64/libpthread.so
                   /home/scw1057/software/libxc/libxc-4.3.4/lib/libxcf03.so
                   /home/scw1057/software/libxc/libxc-4.3.4/lib/libxcf90.so
                   /home/scw1057/software/libxc/libxc-4.3.4/lib/libxc.so

  Using       80 parallel tasks.
  Task        0 on host ccs0121 reporting.
  Task        1 on host ccs0121 reporting.
  Task        2 on host ccs0121 reporting.
  Task        3 on host ccs0121 reporting.
  Task        4 on host ccs0121 reporting.
  Task        5 on host ccs0121 reporting.
  Task        6 on host ccs0121 reporting.
  Task        7 on host ccs0121 reporting.
  Task        8 on host ccs0121 reporting.
  Task        9 on host ccs0121 reporting.
  Task       10 on host ccs0121 reporting.
  Task       11 on host ccs0121 reporting.
  Task       12 on host ccs0121 reporting.
  Task       13 on host ccs0121 reporting.
  Task       14 on host ccs0121 reporting.
  Task       15 on host ccs0121 reporting.
  Task       16 on host ccs0121 reporting.
  Task       17 on host ccs0121 reporting.
  Task       18 on host ccs0121 reporting.
  Task       19 on host ccs0121 reporting.
  Task       20 on host ccs0121 reporting.
  Task       21 on host ccs0121 reporting.
  Task       22 on host ccs0121 reporting.
  Task       23 on host ccs0121 reporting.
  Task       24 on host ccs0121 reporting.
  Task       25 on host ccs0121 reporting.
  Task       26 on host ccs0121 reporting.
  Task       27 on host ccs0121 reporting.
  Task       28 on host ccs0121 reporting.
  Task       29 on host ccs0121 reporting.
  Task       30 on host ccs0121 reporting.
  Task       31 on host ccs0121 reporting.
  Task       32 on host ccs0121 reporting.
  Task       33 on host ccs0121 reporting.
  Task       34 on host ccs0121 reporting.
  Task       35 on host ccs0121 reporting.
  Task       36 on host ccs0121 reporting.
  Task       37 on host ccs0121 reporting.
  Task       38 on host ccs0121 reporting.
  Task       39 on host ccs0121 reporting.
  Task       40 on host ccs0122 reporting.
  Task       41 on host ccs0122 reporting.
  Task       42 on host ccs0122 reporting.
  Task       43 on host ccs0122 reporting.
  Task       44 on host ccs0122 reporting.
  Task       45 on host ccs0122 reporting.
  Task       46 on host ccs0122 reporting.
  Task       47 on host ccs0122 reporting.
  Task       48 on host ccs0122 reporting.
  Task       49 on host ccs0122 reporting.
  Task       50 on host ccs0122 reporting.
  Task       51 on host ccs0122 reporting.
  Task       52 on host ccs0122 reporting.
  Task       53 on host ccs0122 reporting.
  Task       54 on host ccs0122 reporting.
  Task       55 on host ccs0122 reporting.
  Task       56 on host ccs0122 reporting.
  Task       57 on host ccs0122 reporting.
  Task       58 on host ccs0122 reporting.
  Task       59 on host ccs0122 reporting.
  Task       60 on host ccs0122 reporting.
  Task       61 on host ccs0122 reporting.
  Task       62 on host ccs0122 reporting.
  Task       63 on host ccs0122 reporting.
  Task       64 on host ccs0122 reporting.
  Task       65 on host ccs0122 reporting.
  Task       66 on host ccs0122 reporting.
  Task       67 on host ccs0122 reporting.
  Task       68 on host ccs0122 reporting.
  Task       69 on host ccs0122 reporting.
  Task       70 on host ccs0122 reporting.
  Task       71 on host ccs0122 reporting.
  Task       72 on host ccs0122 reporting.
  Task       73 on host ccs0122 reporting.
  Task       74 on host ccs0122 reporting.
  Task       75 on host ccs0122 reporting.
  Task       76 on host ccs0122 reporting.
  Task       77 on host ccs0122 reporting.
  Task       78 on host ccs0122 reporting.
  Task       79 on host ccs0122 reporting.

  Performing system and environment tests:
  *** Environment variable OMP_NUM_THREADS is not set
  *** For performance reasons you might want to set it to 1
  | Checking for ScaLAPACK...
  | Testing pdtran()...
  | All pdtran() tests passed.

  Obtaining array dimensions for all initial allocations:
  
  -----------------------------------------------------------------------
  Parsing control.in (first pass over file, find array dimensions only).
  The contents of control.in will be repeated verbatim below
  unless switched off by setting 'verbatim_writeout .false.' .
  in the first line of control.in .
  -----------------------------------------------------------------------
  
  #===============================================================================
  # FHI-aims file: ./control.in
  # Created using the Atomic Simulation Environment (ASE)
  # Thu May  9 05:52:47 2024
  #===============================================================================
  spin                               none
  relativistic                       atomic_zora scalar
  compute_forces                     .true.
  override_warning_libxc             true
  xc                                 libxc MGGA_X_MBEEF+GGA_C_PBE_SOL
  k_grid                             3 3 3
  occupation_type                    gaussian 0.1
  plus_u_petukhov_mixing             1
  sc_accuracy_etot                   1e-06
  sc_accuracy_eev                    0.001
  sc_accuracy_rho                    1e-06
  sc_accuracy_forces                 0.0001
  #===============================================================================
  
  ################################################################################
  #
  #  FHI-aims code project
  #  VB, Fritz-Haber Institut, 2009
  #
  #  Suggested "light" defaults for Y atom (to be pasted into control.in file)
  #  Be sure to double-check any results obtained with these settings for post-processing,
  #  e.g., with the "tight" defaults and larger basis sets.
  #
  ################################################################################
    species          Y
  #     global species definitions
      nucleus        39
      mass           88.90585
  #
      l_hartree      4
  #
      cut_pot        4.0  1.5  1.0
      basis_dep_cutoff    1e-4
  #
      radial_base    58  5.5
      radial_multiplier  1
      angular_grids specified
        division   0.7193   50
        division   1.2925  110
        division   1.6473  194
        division   1.8976  302
  #      division   2.1161  434
  #      division   2.4151  590
  #      division   2.7220  770
  #      division   2.7789  974
  #      division   3.4772 1202
  #      outer_grid  974
        outer_grid  302
  ################################################################################
  #
  #  Definition of "minimal" basis
  #
  ################################################################################
  #     valence basis states
      valence      5  s   2.
      valence      4  p   6.
      valence      4  d   1.
  #     ion occupancy
      ion_occ      5  s   1.
      ion_occ      4  p   6.
      ion_occ      3  d  10.
  ################################################################################
  #
  #  Suggested additional basis functions. For production calculations,
  #  uncomment them one after another (the most important basis functions are
  #  listed first).
  #
  #  Constructed for dimers: 2.125, 2.5, 2.875, 3.25, 4.00, 5.00 A
  #
  ################################################################################
  #  "First tier" - improvements: -257.43 meV to -10.18 meV
       hydro 4 f 5.4
       hydro 2 p 1.3
       ionic 4 d auto
  #     hydro 5 g 8.4
       ionic 5 s auto
  #  "Second tier" - improvements: -29.28 meV to -1.28 meV
  #     hydro 4 f 9.2
  #     hydro 4 d 3
  #     hydro 6 h 12.4
  #     hydro 5 p 5.6
  #     hydro 1 s 0.45
  #  "Third tier" - improvements: -3.85 meV to -0.14 meV
  #     hydro 2 p 1.8
  #     hydro 4 f 22
  #     hydro 5 g 11.2
  #     hydro 4 f 6.2
  #     hydro 5 d 10
  #     hydro 6 h 13.6
  #     hydro 5 s 1.5
  #  "Fourth tier" - improvements: -0.22 meV to -0.11 meV
  #     hydro 5 d 7.4
  #     ionic 4 p auto
  #     hydro 5 g 9.6
  #     hydro 4 p 3.3
  #     hydro 5 f 2.1
  #     hydro 3 s 1.8
  plus_u 4 d 0
  ################################################################################
  #
  #  FHI-aims code project
  #  VB, Fritz-Haber Institut, 2009
  #
  #  Suggested "light" defaults for O atom (to be pasted into control.in file)
  #  Be sure to double-check any results obtained with these settings for post-processing,
  #  e.g., with the "tight" defaults and larger basis sets.
  #
  ################################################################################
    species        O
  #     global species definitions
      nucleus             8
      mass                15.9994
  #
      l_hartree           4
  #
      cut_pot             3.5  1.5  1.0
      basis_dep_cutoff    1e-4
  #
      radial_base         36 5.0
      radial_multiplier   1
       angular_grids specified
        division   0.2659   50
        division   0.4451  110
        division   0.6052  194
        division   0.7543  302
  #      division   0.8014  434
  #      division   0.8507  590
  #      division   0.8762  770
  #      division   0.9023  974
  #      division   1.2339 1202
  #      outer_grid 974
        outer_grid 302
  ################################################################################
  #
  #  Definition of "minimal" basis
  #
  ################################################################################
  #     valence basis states
      valence      2  s   2.
      valence      2  p   4.
  #     ion occupancy
      ion_occ      2  s   1.
      ion_occ      2  p   3.
  ################################################################################
  #
  #  Suggested additional basis functions. For production calculations,
  #  uncomment them one after another (the most important basis functions are
  #  listed first).
  #
  #  Constructed for dimers: 1.0 A, 1.208 A, 1.5 A, 2.0 A, 3.0 A
  #
  ################################################################################
  #  "First tier" - improvements: -699.05 meV to -159.38 meV
       hydro 2 p 1.8
       hydro 3 d 7.6
       hydro 3 s 6.4
  #  "Second tier" - improvements: -49.91 meV to -5.39 meV
  #     hydro 4 f 11.6
  #     hydro 3 p 6.2
  #     hydro 3 d 5.6
  #     hydro 5 g 17.6
  #     hydro 1 s 0.75
  #  "Third tier" - improvements: -2.83 meV to -0.50 meV
  #     ionic 2 p auto
  #     hydro 4 f 10.8
  #     hydro 4 d 4.7
  #     hydro 2 s 6.8
  #  "Fourth tier" - improvements: -0.40 meV to -0.12 meV
  #     hydro 3 p 5
  #     hydro 3 s 3.3
  #     hydro 5 g 15.6
  #     hydro 4 f 17.6
  #     hydro 4 d 14
  # Further basis functions - -0.08 meV and below
  #     hydro 3 s 2.1
  #     hydro 4 d 11.6
  #     hydro 3 p 16
  #     hydro 2 s 17.2
  plus_u 2 p 0
  
  -----------------------------------------------------------------------
  Completed first pass over input file control.in .
  -----------------------------------------------------------------------
  
  
  -----------------------------------------------------------------------
  Parsing geometry.in (first pass over file, find array dimensions only).
  The contents of geometry.in will be repeated verbatim below
  unless switched off by setting 'verbatim_writeout .false.' .
  in the first line of geometry.in .
  -----------------------------------------------------------------------
  
  #=======================================================
  # FHI-aims file: ./geometry.in
  # Created using the Atomic Simulation Environment (ASE)
  # Thu May  9 05:52:47 2024
  #=======================================================
  lattice_vector 10.6039999999999992 0.0000000000000000 0.0000000000000000
  lattice_vector 0.0000000000000000 10.6039999999999992 0.0000000000000000
  lattice_vector 0.0000000000000000 0.0000000000000000 10.6039999999999992
  atom_frac 0.7499999909379770 0.2499999732544112 0.7499999665371637 Y
  atom_frac 0.2500000194679392 0.7499999811811842 0.7500000188264720 Y
  atom_frac 0.7500000308801296 0.7500000128336770 0.2499999953931095 Y
  atom_frac 0.7500000024455464 0.7499999886156518 0.7499999857583645 Y
  atom_frac 0.2500000453246540 0.7500000182568679 0.2500000017448161 Y
  atom_frac 0.7500000183214104 0.2499999986874419 0.2500000037784166 Y
  atom_frac 0.2499999502601726 0.2499999660986160 0.7500000491571324 Y
  atom_frac 0.2500000579555438 0.2499999954024589 0.2500000060071297 Y
  atom_frac 0.7499999875617024 0.9679048757835274 0.5000000093833729 Y
  atom_frac 0.2500000832851040 0.4679048594117838 -0.0000000265794685 Y
  atom_frac 0.7499999582309783 0.0320951359952121 -0.0000000051186995 Y
  atom_frac 0.4999999708413534 0.7499999737290296 0.9679032530752523 Y
  atom_frac 0.0000000006460959 0.2500000048658806 0.4679032678705995 Y
  atom_frac -0.0000000114139857 0.7500000200310439 0.0320967493893251 Y
  atom_frac 0.9679066071667271 0.5000000289547024 0.7499999596962006 Y
  atom_frac 0.4679066142038338 -0.0000000061468268 0.2499999883034857 Y
  atom_frac 0.0320934211610598 0.0000000518627549 0.7499999828244149 Y
  atom_frac 0.2499999123337363 0.0320951415348946 0.5000000019175852 Y
  atom_frac 0.7499999702835189 0.5320951589856020 0.0000000181205740 Y
  atom_frac 0.2499999789794707 0.9679048849513806 -0.0000000169442889 Y
  atom_frac 0.4999999809349245 0.2500000298623134 0.0320967555733867 Y
  atom_frac -0.0000000177311650 0.7499999862946939 0.5320967485278326 Y
  atom_frac 0.0000000318046616 0.2499999625346621 0.9679032303585090 Y
  atom_frac 0.0320933603759441 0.4999999821181960 0.2500000682716562 Y
  atom_frac 0.5320934236213293 0.0000000204881178 0.7500000154121991 Y
  atom_frac 0.9679066141736195 -0.0000000089666586 0.2500000077095929 Y
  atom_frac 0.2499999622965346 0.5320951667486303 0.4999999712996615 Y
  atom_frac 0.5000000460716612 0.2499999844224995 0.5320967299196178 Y
  atom_frac 0.5320933572336417 0.4999999760868931 0.2499999476365735 Y
  atom_frac 0.7500000555925206 0.4679048531009999 0.5000000103777138 Y
  atom_frac 0.4999999919591615 0.7500000048811643 0.4679032548380227 Y
  atom_frac 0.4679066110244574 0.5000000517393498 0.7500000627555418 Y
  atom_frac 0.6203005562702836 0.3906589225640528 0.6512637122978410 O
  atom_frac 0.3796994091124603 0.8906589286037039 0.8487362657314482 O
  atom_frac 0.8796994542119803 0.6093410755732032 0.1512637152386808 O
  atom_frac 0.6203005957134967 0.6093410767675216 0.8487362609173996 O
  atom_frac 0.6512656642961159 0.6202996932895954 0.3906580484564358 O
  atom_frac 0.8487343474699680 0.3797003271051021 0.8906580521340055 O
  atom_frac 0.1512656578125286 0.8797003097047154 0.6093419766519553 O
  atom_frac 0.8487343438308877 0.6202996667574450 0.6093419754921454 O
  atom_frac 0.3906630237005215 0.6512604323947527 0.6202982615915357 O
  atom_frac 0.8906630233964916 0.8487395664449231 0.3797017127971729 O
  atom_frac 0.6093369735705976 0.1512604219241210 0.8797016946574281 O
  atom_frac 0.6093369540243136 0.8487395628593351 0.6202982843356983 O
  atom_frac 0.3796994400875984 0.6093410840632582 0.3487362830542390 O
  atom_frac 0.6203005864469012 0.1093410646773707 0.1512637312430115 O
  atom_frac 0.1203005567301221 0.3906589427634372 0.8487362967957460 O
  atom_frac 0.3796994069739110 0.3906588966784325 0.1512637379719136 O
  atom_frac 0.3487343382176726 0.3797003268077633 0.6093419501657025 O
  atom_frac 0.1512656607956016 0.6202996911008574 0.1093419608231295 O
  atom_frac 0.8487343283572902 0.1202996678707372 0.3906580245543819 O
  atom_frac 0.1512656714726603 0.3797003184116856 0.3906580109930967 O
  atom_frac 0.6093369810429474 0.3487395499074489 0.3797017474403476 O
  atom_frac 0.1093369684841244 0.1512604220491319 0.6202982983581921 O
  atom_frac 0.3906630246495224 0.8487395678321469 0.1202982903588314 O
  atom_frac 0.3906630308196577 0.1512604395481887 0.3797017304036781 O
  atom_frac 0.1203005887764711 0.8906589024343800 0.1512637272425436 O
  atom_frac 0.8796994126964288 0.3906589129367702 0.3487362451518539 O
  atom_frac 0.3796994067007309 0.1093411065029337 0.6512637267105478 O
  atom_frac 0.1203005870762935 0.1093410682261421 0.3487362587770602 O
  atom_frac 0.1512656213936897 0.1202997079792102 0.8906580410955797 O
  atom_frac 0.3487343577471355 0.8797003123395016 0.3906580411776077 O
  atom_frac 0.6512656812928185 0.3797003113966385 0.1093419815651543 O
  atom_frac 0.3487343380358614 0.1202996630560283 0.1093419705728389 O
  atom_frac 0.8906630326973730 0.1512604544144235 0.1202982868062407 O
  atom_frac 0.3906630169263542 0.3487395445290157 0.8797016899464329 O
  atom_frac 0.1093369891375275 0.6512604390153670 0.3797016852037594 O
  atom_frac 0.1093369897018256 0.3487395554801643 0.1202982693445360 O
  atom_frac 0.8796994027273101 0.1093411043865331 0.8487362895166467 O
  atom_frac 0.1203005906192157 0.6093410793377458 0.6512637319923753 O
  atom_frac 0.6203005835070939 0.8906589048608847 0.3487362706449069 O
  atom_frac 0.8796993980841865 0.8906589135142757 0.6512637267475156 O
  atom_frac 0.8487343651978407 0.8797003087310525 0.1093419561453449 O
  atom_frac 0.6512656052555591 0.1202996977479456 0.6093419625839213 O
  atom_frac 0.3487343441507184 0.6202996561984968 0.8906580268682022 O
  atom_frac 0.6512656554886992 0.8797003262291482 0.8906580140815159 O
  atom_frac 0.1093369695519636 0.8487395445839615 0.8797017207991746 O
  atom_frac 0.6093370004891157 0.6512604469221877 0.1202983069909607 O
  atom_frac 0.8906630147001199 0.3487395654840231 0.6202983018944966 O
  atom_frac 0.8906630243277529 0.6512604443940884 0.8797017338554973 O
  
  -----------------------------------------------------------------------
  Completed first pass over input file geometry.in .
  -----------------------------------------------------------------------
  

  Basic array size parameters:
  | Number of species                 :        2
  | Number of atoms                   :       80
  | Number of lattice vectors         :        3
  | Max. basis fn. angular momentum   :        3
  | Max. atomic/ionic basis occupied n:        5
  | Max. number of basis fn. types    :        3
  | Max. radial fns per species/type  :       10
  | Max. logarithmic grid size        :     1430
  | Max. radial integration grid size :       58
  | Max. angular integration grid size:      302
  | Max. angular grid division number :        8
  | Radial grid for Hartree potential :     1430
  | Number of spin channels           :        1
  | Max. number of (n,l) shells per species with '+U' treatment:        1

------------------------------------------------------------
          Reading file control.in.
------------------------------------------------------------
  Spin treatment: No spin polarisation.
  Scalar relativistic treatment of kinetic energy: on-site free-atom approximation to ZORA.
  Forces will be computed.
  XC: Using LibXC. Please refer to LibXC output for further details.
  Using libxc - Initializing
  Libxc version: 4.3.4


  ** PLEASE ** be careful using LibXC. Whilst most of the LDA, GGA and MGGA functionals,
  and hybrid variations therein, should be stable (though we always recommend testing!),
  there are several fancy functionals with e.g. range-separation, like HSE03/HSE06/LC-PBEh,
  and also MGGA functionals that depend on the laplacian of the density, like BR89,
  that are not fully implemented due to the infrastrucutre for these functionals being incomplete or non-generic.
  If you want to use these functionals please contact the development team and we will work on them with you!

  You have selected libxc functional MGGA_X_MBEEF (249)
    - Description: mBEEF exchange
    - Type: MGGA(Exchange)
    - Reference to Literature:
      [1] J. Wellendorff, K. T. Lundgaard, K. W. Jacobsen, and T. Bligaard, J. Chem. Phys. 140, 144107 (2014)

  You have selected libxc functional GGA_C_PBE_SOL (133)
    - Description: Perdew, Burke & Ernzerhof SOL
    - Type: GGA(Correlation)
    - Reference to Literature:
      [1] J. P. Perdew, A. Ruzsinszky, G. I. Csonka, O. A. Vydrov, G. E. Scuseria, L. A. Constantin, X. Zhou, and K. Burke, Phys.

  Switching on meta-ggas
  Found k-point grid:         3         3         3
  Occupation type: Gaussian broadening, width =   0.100000E+00 eV.
  Fixing petukhov mixing factor to   1.000000000000
  Convergence accuracy of total energy:  0.1000E-05
  Convergence accuracy of sum of eigenvalues:  0.1000E-02
  Convergence accuracy of self-consistent charge density:  0.1000E-05
  Convergence accuracy of forces:  0.1000E-03
 
  Reading configuration options for species Y                   .
  | Found nuclear charge :  39.0000
  | Found atomic mass :    88.9058500000000      amu
  | Found l_max for Hartree potential  :   4
  | Found cutoff potl. onset [A], width [A], scale factor :    4.00000    1.50000    1.00000
  | Threshold for basis-dependent cutoff potential is   0.100000E-03
  | Found data for basic radial integration grid :    58 points, outermost radius =    5.500 A
  | Found multiplier for basic radial grid :   1
  | Found angular grid specification: user-specified.
  | Specified grid contains     5 separate shells.
  | Check grid settings after all constraints further below.
  | Found free-atom valence shell :  5 s   2.000
  | Found free-atom valence shell :  4 p   6.000
  | Found free-atom valence shell :  4 d   1.000
  | Found free-ion valence shell :  5 s   1.000
  | Found free-ion valence shell :  4 p   6.000
  | Found free-ion valence shell :  3 d  10.000
  | Found hydrogenic basis function :  4 f   5.400
  | Found hydrogenic basis function :  2 p   1.300
  | Found ionic basis function :  4 d , default cutoff radius.
  | Found ionic basis function :  5 s , default cutoff radius.
  | Found request for '+U' treatment for  4 d shell, U =     0.000000 eV.
  Species Y                   : Missing cutoff potential type.
  Defaulting to exp(1/x)/(1-x)^2 type cutoff potential.
  Species Y : No 'logarithmic' tag. Using default grid for free atom:
  | Default logarithmic grid data [bohr] : 0.1000E-03 0.1000E+03 0.1012E+01
  | Will include ionic basis functions of  2.0-fold positive Y                    ion.
  Species Y : On-site basis accuracy parameter (for Gram-Schmidt orthonormalisation) not specified.
  Using default value basis_acc =  0.1000000E-03.
  Species Y                   : Using default innermost maximum threshold i_radial=  2 for radial functions.
  Species Y                   : Default cutoff onset for free atom density etc. : 0.40000000E+01 AA.
  Species Y                   : Basic radial grid will be enhanced according to radial_multiplier =   1, to contain    58 grid points.
 
  Reading configuration options for species O                   .
  | Found nuclear charge :   8.0000
  | Found atomic mass :    15.9994000000000      amu
  | Found l_max for Hartree potential  :   4
  | Found cutoff potl. onset [A], width [A], scale factor :    3.50000    1.50000    1.00000
  | Threshold for basis-dependent cutoff potential is   0.100000E-03
  | Found data for basic radial integration grid :    36 points, outermost radius =    5.000 A
  | Found multiplier for basic radial grid :   1
  | Found angular grid specification: user-specified.
  | Specified grid contains     5 separate shells.
  | Check grid settings after all constraints further below.
  | Found free-atom valence shell :  2 s   2.000
  | Found free-atom valence shell :  2 p   4.000
  | Found free-ion valence shell :  2 s   1.000
  | Found free-ion valence shell :  2 p   3.000
  | Found hydrogenic basis function :  2 p   1.800
  | Found hydrogenic basis function :  3 d   7.600
  | Found hydrogenic basis function :  3 s   6.400
  | Found request for '+U' treatment for  2 p shell, U =     0.000000 eV.
  Species O                   : Missing cutoff potential type.
  Defaulting to exp(1/x)/(1-x)^2 type cutoff potential.
  Species O : No 'logarithmic' tag. Using default grid for free atom:
  | Default logarithmic grid data [bohr] : 0.1000E-03 0.1000E+03 0.1012E+01
  Species O : On-site basis accuracy parameter (for Gram-Schmidt orthonormalisation) not specified.
  Using default value basis_acc =  0.1000000E-03.
  Species O                   : Using default innermost maximum threshold i_radial=  2 for radial functions.
  Species O                   : Default cutoff onset for free atom density etc. : 0.35000000E+01 AA.
  Species O                   : Basic radial grid will be enhanced according to radial_multiplier =   1, to contain    36 grid points.
 
  Finished reading input file 'control.in'.
 
------------------------------------------------------------


------------------------------------------------------------
          Reading geometry description geometry.in.
------------------------------------------------------------
  | The smallest distance between any two atoms is         2.24765325 AA.
  | The first atom of this pair is atom number                     24 .
  | The second atom of this pair is atom number                    58 .
  | Wigner-Seitz cell of the first atom image           0     0     0 .
  | (The Wigner-Seitz cell of the second atom is 0 0 0  by definition.)

  Symmetry information by spglib:
  | Precision set to  0.1E-04
  | Number of Operations  : 16
  | Space group           : 73
  | International         : Ibca
  | Schoenflies           : D2h^27
  Input structure read successfully.
  The structure contains       80 atoms,  and a total of       1632.000 electrons.

  Input geometry:
  | Unit cell:
  |       10.60400000        0.00000000        0.00000000
  |        0.00000000       10.60400000        0.00000000
  |        0.00000000        0.00000000       10.60400000
  | Atomic structure:
  |       Atom                x [A]            y [A]            z [A]
  |    1: Species Y             7.95299990        2.65099972        7.95299965
  |    2: Species Y             2.65100021        7.95299980        7.95300020
  |    3: Species Y             7.95300033        7.95300014        2.65099995
  |    4: Species Y             7.95300003        7.95299988        7.95299985
  |    5: Species Y             2.65100048        7.95300019        2.65100002
  |    6: Species Y             7.95300019        2.65099999        2.65100004
  |    7: Species Y             2.65099947        2.65099964        7.95300052
  |    8: Species Y             2.65100061        2.65099995        2.65100006
  |    9: Species Y             7.95299987       10.26366330        5.30200010
  |   10: Species Y             2.65100088        4.96166313       -0.00000028
  |   11: Species Y             7.95299956        0.34033682       -0.00000005
  |   12: Species Y             5.30199969        7.95299972       10.26364610
  |   13: Species Y             0.00000001        2.65100005        4.96164625
  |   14: Species Y            -0.00000012        7.95300021        0.34035393
  |   15: Species Y            10.26368166        5.30200031        7.95299957
  |   16: Species Y             4.96168174       -0.00000007        2.65099988
  |   17: Species Y             0.34031864        0.00000055        7.95299982
  |   18: Species Y             2.65099907        0.34033688        5.30200002
  |   19: Species Y             7.95299968        5.64233707        0.00000019
  |   20: Species Y             2.65099978       10.26366340       -0.00000018
  |   21: Species Y             5.30199980        2.65100032        0.34035400
  |   22: Species Y            -0.00000019        7.95299985        5.64235392
  |   23: Species Y             0.00000034        2.65099960       10.26364585
  |   24: Species Y             0.34031799        5.30199981        2.65100072
  |   25: Species Y             5.64231866        0.00000022        7.95300016
  |   26: Species Y            10.26368174       -0.00000010        2.65100008
  |   27: Species Y             2.65099960        5.64233715        5.30199970
  |   28: Species Y             5.30200049        2.65099983        5.64235372
  |   29: Species Y             5.64231796        5.30199975        2.65099944
  |   30: Species Y             7.95300059        4.96166306        5.30200011
  |   31: Species Y             5.30199991        7.95300005        4.96164611
  |   32: Species Y             4.96168170        5.30200055        7.95300067
  |   33: Species O             6.57766710        4.14254721        6.90600041
  |   34: Species O             4.02633253        9.44454728        8.99999936
  |   35: Species O             9.32833301        6.46145277        1.60400044
  |   36: Species O             6.57766752        6.46145278        8.99999931
  |   37: Species O             6.90602110        6.57765795        4.14253795
  |   38: Species O             8.99997902        4.02634227        9.44453798
  |   39: Species O             1.60402104        9.32834208        6.46146232
  |   40: Species O             8.99997898        6.57765767        6.46146231
  |   41: Species O             4.14259070        6.90596563        6.57764277
  |   42: Species O             9.44459070        9.00003436        4.02635696
  |   43: Species O             6.46140927        1.60396551        9.32835677
  |   44: Species O             6.46140906        9.00003432        6.57764301
  |   45: Species O             4.02633286        6.46145286        3.69799955
  |   46: Species O             6.57766742        1.15945265        1.60400061
  |   47: Species O             1.27566710        4.14254743        8.99999969
  |   48: Species O             4.02633251        4.14254694        1.60400068
  |   49: Species O             3.69797892        4.02634227        6.46146204
  |   50: Species O             1.60402107        6.57765792        1.15946215
  |   51: Species O             8.99997882        1.27565768        4.14253769
  |   52: Species O             1.60402118        4.02634218        4.14253755
  |   53: Species O             6.46140935        3.69803419        4.02635733
  |   54: Species O             1.15940921        1.60396552        6.57764316
  |   55: Species O             4.14259071        9.00003438        1.27564307
  |   56: Species O             4.14259078        1.60396570        4.02635715
  |   57: Species O             1.27566744        9.44454700        1.60400056
  |   58: Species O             9.32833257        4.14254711        3.69799914
  |   59: Species O             4.02633251        1.15945309        6.90600056
  |   60: Species O             1.27566743        1.15945269        3.69799929
  |   61: Species O             1.60402065        1.27565810        9.44453787
  |   62: Species O             3.69797913        9.32834211        4.14253787
  |   63: Species O             6.90602128        4.02634210        1.15946237
  |   64: Species O             3.69797892        1.27565763        1.15946226
  |   65: Species O             9.44459080        1.60396586        1.27564303
  |   66: Species O             4.14259063        3.69803413        9.32835672
  |   67: Species O             1.15940943        6.90596570        4.02635667
  |   68: Species O             1.15940944        3.69803425        1.27564285
  |   69: Species O             9.32833247        1.15945307        8.99999961
  |   70: Species O             1.27566746        6.46145281        6.90600061
  |   71: Species O             6.57766739        9.44454703        3.69799941
  |   72: Species O             9.32833242        9.44454712        6.90600056
  |   73: Species O             8.99997921        9.32834207        1.15946210
  |   74: Species O             6.90602048        1.27565799        6.46146217
  |   75: Species O             3.69797899        6.57765755        9.44453772
  |   76: Species O             6.90602101        9.32834226        9.44453758
  |   77: Species O             1.15940923        9.00003413        9.32835705
  |   78: Species O             6.46140955        6.90596578        1.27564325
  |   79: Species O             9.44459061        3.69803435        6.57764319
  |   80: Species O             9.44459071        6.90596575        9.32835719

  Lattice parameters for 3D lattice (in Angstroms) :    10.604000   10.604000   10.604000
  Angle(s) between unit vectors (in degrees)       :    90.000000   90.000000   90.000000


  Quantities derived from the lattice vectors:
  | Reciprocal lattice vector 1:  0.592530  0.000000  0.000000
  | Reciprocal lattice vector 2:  0.000000  0.592530  0.000000
  | Reciprocal lattice vector 3:  0.000000  0.000000  0.592530
  | Unit cell volume                               :   0.119236E+04  A^3

  Fractional coordinates:
                         L1                L2                L3
       atom_frac         0.74999999        0.24999997        0.74999997  Y
       atom_frac         0.25000002        0.74999998        0.75000002  Y
       atom_frac         0.75000003        0.75000001        0.25000000  Y
       atom_frac         0.75000000        0.74999999        0.74999999  Y
       atom_frac         0.25000005        0.75000002        0.25000000  Y
       atom_frac         0.75000002        0.25000000        0.25000000  Y
       atom_frac         0.24999995        0.24999997        0.75000005  Y
       atom_frac         0.25000006        0.25000000        0.25000001  Y
       atom_frac         0.74999999        0.96790488        0.50000001  Y
       atom_frac         0.25000008        0.46790486       -0.00000003  Y
       atom_frac         0.74999996        0.03209514       -0.00000001  Y
       atom_frac         0.49999997        0.74999997        0.96790325  Y
       atom_frac         0.00000000        0.25000000        0.46790327  Y
       atom_frac        -0.00000001        0.75000002        0.03209675  Y
       atom_frac         0.96790661        0.50000003        0.74999996  Y
       atom_frac         0.46790661       -0.00000001        0.24999999  Y
       atom_frac         0.03209342        0.00000005        0.74999998  Y
       atom_frac         0.24999991        0.03209514        0.50000000  Y
       atom_frac         0.74999997        0.53209516        0.00000002  Y
       atom_frac         0.24999998        0.96790488       -0.00000002  Y
       atom_frac         0.49999998        0.25000003        0.03209676  Y
       atom_frac        -0.00000002        0.74999999        0.53209675  Y
       atom_frac         0.00000003        0.24999996        0.96790323  Y
       atom_frac         0.03209336        0.49999998        0.25000007  Y
       atom_frac         0.53209342        0.00000002        0.75000002  Y
       atom_frac         0.96790661       -0.00000001        0.25000001  Y
       atom_frac         0.24999996        0.53209517        0.49999997  Y
       atom_frac         0.50000005        0.24999998        0.53209673  Y
       atom_frac         0.53209336        0.49999998        0.24999995  Y
       atom_frac         0.75000006        0.46790485        0.50000001  Y
       atom_frac         0.49999999        0.75000000        0.46790325  Y
       atom_frac         0.46790661        0.50000005        0.75000006  Y
       atom_frac         0.62030056        0.39065892        0.65126371  O
       atom_frac         0.37969941        0.89065893        0.84873627  O
       atom_frac         0.87969945        0.60934108        0.15126372  O
       atom_frac         0.62030060        0.60934108        0.84873626  O
       atom_frac         0.65126566        0.62029969        0.39065805  O
       atom_frac         0.84873435        0.37970033        0.89065805  O
       atom_frac         0.15126566        0.87970031        0.60934198  O
       atom_frac         0.84873434        0.62029967        0.60934198  O
       atom_frac         0.39066302        0.65126043        0.62029826  O
       atom_frac         0.89066302        0.84873957        0.37970171  O
       atom_frac         0.60933697        0.15126042        0.87970169  O
       atom_frac         0.60933695        0.84873956        0.62029828  O
       atom_frac         0.37969944        0.60934108        0.34873628  O
       atom_frac         0.62030059        0.10934106        0.15126373  O
       atom_frac         0.12030056        0.39065894        0.84873630  O
       atom_frac         0.37969941        0.39065890        0.15126374  O
       atom_frac         0.34873434        0.37970033        0.60934195  O
       atom_frac         0.15126566        0.62029969        0.10934196  O
       atom_frac         0.84873433        0.12029967        0.39065802  O
       atom_frac         0.15126567        0.37970032        0.39065801  O
       atom_frac         0.60933698        0.34873955        0.37970175  O
       atom_frac         0.10933697        0.15126042        0.62029830  O
       atom_frac         0.39066302        0.84873957        0.12029829  O
       atom_frac         0.39066303        0.15126044        0.37970173  O
       atom_frac         0.12030059        0.89065890        0.15126373  O
       atom_frac         0.87969941        0.39065891        0.34873625  O
       atom_frac         0.37969941        0.10934111        0.65126373  O
       atom_frac         0.12030059        0.10934107        0.34873626  O
       atom_frac         0.15126562        0.12029971        0.89065804  O
       atom_frac         0.34873436        0.87970031        0.39065804  O
       atom_frac         0.65126568        0.37970031        0.10934198  O
       atom_frac         0.34873434        0.12029966        0.10934197  O
       atom_frac         0.89066303        0.15126045        0.12029829  O
       atom_frac         0.39066302        0.34873954        0.87970169  O
       atom_frac         0.10933699        0.65126044        0.37970169  O
       atom_frac         0.10933699        0.34873956        0.12029827  O
       atom_frac         0.87969940        0.10934110        0.84873629  O
       atom_frac         0.12030059        0.60934108        0.65126373  O
       atom_frac         0.62030058        0.89065890        0.34873627  O
       atom_frac         0.87969940        0.89065891        0.65126373  O
       atom_frac         0.84873437        0.87970031        0.10934196  O
       atom_frac         0.65126561        0.12029970        0.60934196  O
       atom_frac         0.34873434        0.62029966        0.89065803  O
       atom_frac         0.65126566        0.87970033        0.89065801  O
       atom_frac         0.10933697        0.84873954        0.87970172  O
       atom_frac         0.60933700        0.65126045        0.12029831  O
       atom_frac         0.89066301        0.34873957        0.62029830  O
       atom_frac         0.89066302        0.65126044        0.87970173  O

 
  Finished reading input file 'control.in'.
 

------------------------------------------------------------
          Reading geometry description geometry.in.
------------------------------------------------------------
 
  Consistency checks for stacksize environment parameter are next.
 
  | Maximum stacksize for task 0: unlimited
  | Maximum stacksize for task 1: unlimited
  | Maximum stacksize for task 2: unlimited
  | Maximum stacksize for task 3: unlimited
  | Maximum stacksize for task 4: unlimited
  | Maximum stacksize for task 5: unlimited
  | Maximum stacksize for task 6: unlimited
  | Maximum stacksize for task 7: unlimited
  | Maximum stacksize for task 8: unlimited
  | Maximum stacksize for task 9: unlimited
  | Maximum stacksize for task 10: unlimited
  | Maximum stacksize for task 11: unlimited
  | Maximum stacksize for task 12: unlimited
  | Maximum stacksize for task 13: unlimited
  | Maximum stacksize for task 14: unlimited
  | Maximum stacksize for task 15: unlimited
  | Maximum stacksize for task 16: unlimited
  | Maximum stacksize for task 17: unlimited
  | Maximum stacksize for task 18: unlimited
  | Maximum stacksize for task 19: unlimited
  | Maximum stacksize for task 20: unlimited
  | Maximum stacksize for task 21: unlimited
  | Maximum stacksize for task 22: unlimited
  | Maximum stacksize for task 23: unlimited
  | Maximum stacksize for task 24: unlimited
  | Maximum stacksize for task 25: unlimited
  | Maximum stacksize for task 26: unlimited
  | Maximum stacksize for task 27: unlimited
  | Maximum stacksize for task 28: unlimited
  | Maximum stacksize for task 29: unlimited
  | Maximum stacksize for task 30: unlimited
  | Maximum stacksize for task 31: unlimited
  | Maximum stacksize for task 32: unlimited
  | Maximum stacksize for task 33: unlimited
  | Maximum stacksize for task 34: unlimited
  | Maximum stacksize for task 35: unlimited
  | Maximum stacksize for task 36: unlimited
  | Maximum stacksize for task 37: unlimited
  | Maximum stacksize for task 38: unlimited
  | Maximum stacksize for task 39: unlimited
  | Maximum stacksize for task 40: unlimited
  | Maximum stacksize for task 41: unlimited
  | Maximum stacksize for task 42: unlimited
  | Maximum stacksize for task 43: unlimited
  | Maximum stacksize for task 44: unlimited
  | Maximum stacksize for task 45: unlimited
  | Maximum stacksize for task 46: unlimited
  | Maximum stacksize for task 47: unlimited
  | Maximum stacksize for task 48: unlimited
  | Maximum stacksize for task 49: unlimited
  | Maximum stacksize for task 50: unlimited
  | Maximum stacksize for task 51: unlimited
  | Maximum stacksize for task 52: unlimited
  | Maximum stacksize for task 53: unlimited
  | Maximum stacksize for task 54: unlimited
  | Maximum stacksize for task 55: unlimited
  | Maximum stacksize for task 56: unlimited
  | Maximum stacksize for task 57: unlimited
  | Maximum stacksize for task 58: unlimited
  | Maximum stacksize for task 59: unlimited
  | Maximum stacksize for task 60: unlimited
  | Maximum stacksize for task 61: unlimited
  | Maximum stacksize for task 62: unlimited
  | Maximum stacksize for task 63: unlimited
  | Maximum stacksize for task 64: unlimited
  | Maximum stacksize for task 65: unlimited
  | Maximum stacksize for task 66: unlimited
  | Maximum stacksize for task 67: unlimited
  | Maximum stacksize for task 68: unlimited
  | Maximum stacksize for task 69: unlimited
  | Maximum stacksize for task 70: unlimited
  | Maximum stacksize for task 71: unlimited
  | Maximum stacksize for task 72: unlimited
  | Maximum stacksize for task 73: unlimited
  | Maximum stacksize for task 74: unlimited
  | Maximum stacksize for task 75: unlimited
  | Maximum stacksize for task 76: unlimited
  | Maximum stacksize for task 77: unlimited
  | Maximum stacksize for task 78: unlimited
  | Maximum stacksize for task 79: unlimited
  | Current stacksize for task 0: unlimited
  | Current stacksize for task 1: unlimited
  | Current stacksize for task 2: unlimited
  | Current stacksize for task 3: unlimited
  | Current stacksize for task 4: unlimited
  | Current stacksize for task 5: unlimited
  | Current stacksize for task 6: unlimited
  | Current stacksize for task 7: unlimited
  | Current stacksize for task 8: unlimited
  | Current stacksize for task 9: unlimited
  | Current stacksize for task 10: unlimited
  | Current stacksize for task 11: unlimited
  | Current stacksize for task 12: unlimited
  | Current stacksize for task 13: unlimited
  | Current stacksize for task 14: unlimited
  | Current stacksize for task 15: unlimited
  | Current stacksize for task 16: unlimited
  | Current stacksize for task 17: unlimited
  | Current stacksize for task 18: unlimited
  | Current stacksize for task 19: unlimited
  | Current stacksize for task 20: unlimited
  | Current stacksize for task 21: unlimited
  | Current stacksize for task 22: unlimited
  | Current stacksize for task 23: unlimited
  | Current stacksize for task 24: unlimited
  | Current stacksize for task 25: unlimited
  | Current stacksize for task 26: unlimited
  | Current stacksize for task 27: unlimited
  | Current stacksize for task 28: unlimited
  | Current stacksize for task 29: unlimited
  | Current stacksize for task 30: unlimited
  | Current stacksize for task 31: unlimited
  | Current stacksize for task 32: unlimited
  | Current stacksize for task 33: unlimited
  | Current stacksize for task 34: unlimited
  | Current stacksize for task 35: unlimited
  | Current stacksize for task 36: unlimited
  | Current stacksize for task 37: unlimited
  | Current stacksize for task 38: unlimited
  | Current stacksize for task 39: unlimited
  | Current stacksize for task 40: unlimited
  | Current stacksize for task 41: unlimited
  | Current stacksize for task 42: unlimited
  | Current stacksize for task 43: unlimited
  | Current stacksize for task 44: unlimited
  | Current stacksize for task 45: unlimited
  | Current stacksize for task 46: unlimited
  | Current stacksize for task 47: unlimited
  | Current stacksize for task 48: unlimited
  | Current stacksize for task 49: unlimited
  | Current stacksize for task 50: unlimited
  | Current stacksize for task 51: unlimited
  | Current stacksize for task 52: unlimited
  | Current stacksize for task 53: unlimited
  | Current stacksize for task 54: unlimited
  | Current stacksize for task 55: unlimited
  | Current stacksize for task 56: unlimited
  | Current stacksize for task 57: unlimited
  | Current stacksize for task 58: unlimited
  | Current stacksize for task 59: unlimited
  | Current stacksize for task 60: unlimited
  | Current stacksize for task 61: unlimited
  | Current stacksize for task 62: unlimited
  | Current stacksize for task 63: unlimited
  | Current stacksize for task 64: unlimited
  | Current stacksize for task 65: unlimited
  | Current stacksize for task 66: unlimited
  | Current stacksize for task 67: unlimited
  | Current stacksize for task 68: unlimited
  | Current stacksize for task 69: unlimited
  | Current stacksize for task 70: unlimited
  | Current stacksize for task 71: unlimited
  | Current stacksize for task 72: unlimited
  | Current stacksize for task 73: unlimited
  | Current stacksize for task 74: unlimited
  | Current stacksize for task 75: unlimited
  | Current stacksize for task 76: unlimited
  | Current stacksize for task 77: unlimited
  | Current stacksize for task 78: unlimited
  | Current stacksize for task 79: unlimited
 
  Consistency checks for the contents of control.in are next.
 
  MPI_IN_PLACE appears to work with this MPI implementation.
  | Keeping use_mpi_in_place .true. (see manual).
  Target number of points in a grid batch is not set. Defaulting to  100
  Method for grid partitioning is not set. Defaulting to parallel hash+maxmin partitioning.
  Batch size limit is not set. Defaulting to    200
  By default, will store active basis functions for each batch.
  If in need of memory, prune_basis_once .false. can be used to disable this option.
  communication_type for Hartree potential was not specified.
  Defaulting to calc_hartree .
  Defaulting to Pulay charge density mixer.
  Pulay mixer: Number of relevant iterations not set.
  Defaulting to    8 iterations.
  Pulay mixer: Number of initial linear mixing iterations not set.
  Defaulting to    0 iterations.
  Work space size for distributed Hartree potential not set.
  Defaulting to   0.200000E+03 MB.
  Mixing parameter for charge density mixing has not been set.
  Using default: charge_mix_param =     0.0500.
  The mixing parameter will be adjusted in iteration number     2 of the first full s.c.f. cycle only.
  Algorithm-dependent basis array size parameters:
  | n_max_pulay                         :        8
  Maximum number of self-consistency iterations not provided.
  Presetting  1000 iterations.
  Presetting      1001 iterations before the initial mixing cycle
  is restarted anyway using the sc_init_iter criterion / keyword.
  Presetting a factor      1.000 between actual scf density residual
  and density convergence criterion sc_accuracy_rho below which sc_init_iter
  takes no effect.
  Geometry relaxation not requested: no relaxation will be performed.
  Handling of forces: Unphysical translation and rotation will be removed from forces.
  No accuracy limit for integral partition fn. given. Defaulting to  0.1000E-14.
  No threshold value for u(r) in integrations given. Defaulting to  0.1000E-05.
  No accuracy for occupation numbers given. Defaulting to  0.1000E-12.
  No threshold value for occupation numbers given. Defaulting to  0.0000E+00.
  No accuracy for fermi level given. Defaulting to  0.1000E-19.
  Maximum # of iterations to find E_F not set. Defaulting to  200.
  Preferred method for the eigenvalue solver ('KS_method') not specified in 'control.in'.
  Calling BLACS routine to test compilation state
  Since ScaLAPACK support is enabled, defaulting to ELPA (via ELSI).
  Will not use alltoall communication since running on < 1024 CPUs.
  Threshold for basis singularities not set.
  Default threshold for basis singularities:  0.1000E-04
  partition_type (choice of integration weights) for integrals was not specified.
  | Using a version of the partition function of Stratmann and coworkers ('stratmann_sparse').
  | At each grid point, the set of atoms used to build the partition table is smoothly restricted to
  | only those atoms whose free-atom density would be non-zero at that grid point.
  Partitioning for Hartree potential was not defined. Using partition_type for integrals.
  | Adjusted default value of keyword multip_moments_threshold to:       0.10000000E-11
  | This value may affect high angular momentum components of the Hartree potential in periodic systems.
  Angular momentum expansion for Kerker preconditioner not set explicitly.
  | Using default value of   0
  No explicit requirement for turning off preconditioner.
  | By default, it will be turned off when the charge convergence reaches
  | sc_accuracy_rho  =   0.100000E-05
  | sc_accuracy_eev  =   0.100000E-02
  | sc_accuracy_etot =   0.100000E-05
  No special mixing parameter while Kerker preconditioner is on.
  Using default: charge_mix_param =     0.0500.
  No q(lm)/r^(l+1) cutoff set for long-range Hartree potential.
  | Using default value of  0.100000E-09 .
  | Verify using the multipole_threshold keyword.
  Defaulting to new monopole extrapolation.
  Density update method: automatic selection selected.
  Using density matrix based charge density update.
 * Warning: DFT+U requires using density matrix based charge density update.
  Using density matrix based charge density update.
  Using packed matrix style: index .
  Defaulting to use time-reversal symmetry for k-point grid.
  Charge integration errors on the 3D integration grid will be compensated
  by explicit normalization and distribution of residual charges.
  Use the "compensate_multipole_errors" flag to change this behaviour.
 
  Consistency checks for the contents of geometry.in are next.
 

  Range separation radius for Ewald summation (hartree_convergence_parameter):      3.48267120 bohr.
  Number of empty states per atom not set in control.in - providing a guess from actual geometry.
  | Total number of empty states used during s.c.f. cycle:      320
  If you use a very high smearing, use empty_states (per atom!) in control.in to increase this value.

  Structure-dependent array size parameters: 
  | Maximum number of distinct radial functions  :       20
  | Maximum number of basis functions            :     1952
  | Number of Kohn-Sham states (occupied + empty):     1136
------------------------------------------------------------

------------------------------------------------------------
          Preparing all fixed parts of the calculation.
------------------------------------------------------------
  Determining machine precision:
    2.225073858507201E-308
  Setting up grids for atomic and cluster calculations.

  Creating wave function, potential, and density for free atoms.

  Species: Y

  List of occupied orbitals and eigenvalues:
    n    l              occ      energy [Ha]    energy [eV]
    1    0           2.0000      -631.133399    -17174.0136
    2    0           2.0000       -85.100607     -2315.7053
    3    0           2.0000       -13.507710      -367.5635
    4    0           2.0000        -1.748167       -47.5700
    5    0           2.0000        -0.143376        -3.9015
    2    1           6.0000       -75.807021     -2062.8140
    3    1           6.0000       -10.505835      -285.8783
    4    1           6.0000        -1.011659       -27.5286
    3    2          10.0000        -5.550377      -151.0334
    4    2           1.0000        -0.084176        -2.2906


  Species: O

  List of occupied orbitals and eigenvalues:
    n    l              occ      energy [Ha]    energy [eV]
    1    0           2.0000       -18.786109      -511.1960
    2    0           2.0000        -0.872635       -23.7456
    2    1           4.0000        -0.337687        -9.1889


  Adding cutoff potential to free-atom effective potential.
  Creating fixed part of basis set: Ionic, confined, hydrogenic.
 
  Y                    ion:

  List of free ionic orbitals and eigenvalues:
    n    l      energy [Ha]    energy [eV]
    1    0      -631.813896    -17192.5309
    2    0       -85.777548     -2334.1259
    3    0       -14.178955      -385.8290
    4    0        -2.399961       -65.3063
    5    0        -0.612751       -16.6738
    2    1       -76.483255     -2081.2153
    3    1       -11.176954      -304.1404
    4    1        -1.652915       -44.9781
    3    2        -6.221952      -169.3079


  List of ionic basis orbitals and eigenvalues:
    n    l      energy [Ha]    energy [eV]    outer radius [A]
    4    2        -0.656421       -17.8621       4.832173
    5    0        -0.612498       -16.6669       5.074338

 
  Y                    hydrogenic:
 
  List of hydrogenic basis orbitals: 
    n    l      effective z      eigenvalue [eV]  inner max. [A]     outer max. [A]     outer radius [A]   
    4    3         5.400000       -24.7860           1.569250           1.569250           5.074338
    2    1         1.300000        -5.6157           1.588552           1.588552           5.074338
 
 
  O                    hydrogenic:
 
  List of hydrogenic basis orbitals: 
    n    l      effective z      eigenvalue [eV]  inner max. [A]     outer max. [A]     outer radius [A]   
    2    1         1.800000       -10.9749           1.164242           1.164242           4.578029
    3    2         7.600000       -87.3180           0.624125           0.624125           3.251020
    3    0         6.400000       -61.9207           0.061167           1.081902           4.001998
 
  Creating atomic-like basis functions for current effective potential.

  Species Y                   :

  List of atomic basis orbitals and eigenvalues:
    n    l      energy [Ha]    energy [eV]    outer radius [A]
    1    0      -631.133399    -17174.0136       0.266595
    2    0       -85.100607     -2315.7053       0.753594
    3    0       -13.507710      -367.5635       1.839553
    4    0        -1.748167       -47.5700       4.601564
    5    0        -0.143376        -3.9015       5.074338
    2    1       -75.807021     -2062.8140       0.772247
    3    1       -10.505835      -285.8783       2.028552
    4    1        -1.011659       -27.5286       4.832173
    3    2        -5.550377      -151.0334       2.590425
    4    2        -0.084176        -2.2906       5.074338


  Species O                   :

  List of atomic basis orbitals and eigenvalues:
    n    l      energy [Ha]    energy [eV]    outer radius [A]
    1    0       -18.786109      -511.1960       1.433179
    2    0        -0.872635       -23.7456       4.413171
    2    1        -0.337687        -9.1889       4.522403

  Assembling full basis from fixed parts.
 * Warning - Since '+U' treatment was requested,
 * the basis-dependent cutoff is turned off automatically.
  | Species Y :   atomic orbital   1 s accepted.
  | Species Y :   atomic orbital   2 s accepted.
  | Species Y :   atomic orbital   3 s accepted.
  | Species Y :   atomic orbital   4 s accepted.
  | Species Y :   atomic orbital   5 s accepted.
  | Species Y :    ionic orbital   5 s accepted.
  | Species Y :   atomic orbital   2 p accepted.
  | Species Y :   atomic orbital   3 p accepted.
  | Species Y :   atomic orbital   4 p accepted.
  | Species Y :    hydro orbital   2 p accepted.
  | Species Y :   atomic orbital   3 d accepted.
  | Species Y :   atomic orbital   4 d accepted.
  | Species Y :    ionic orbital   4 d accepted.
  | Species Y :    hydro orbital   4 f accepted.
 * Warning - Since '+U' treatment was requested,
 * the basis-dependent cutoff is turned off automatically.
  | Species O :   atomic orbital   1 s accepted.
  | Species O :   atomic orbital   2 s accepted.
  | Species O :    hydro orbital   3 s accepted.
  | Species O :   atomic orbital   2 p accepted.
  | Species O :    hydro orbital   2 p accepted.
  | Species O :    hydro orbital   3 d accepted.
 
  Basis size parameters after reduction:
  | Total number of radial functions:       20
  | Total number of basis functions :     1952
 
  Per-task memory consumption for arrays in subroutine allocate_ext:
  |           7.368960MB.
  Testing on-site integration grid accuracy.
  |  Species  Function  <phi|h_atom|phi> (log., in eV)  <phi|h_atom|phi> (rad., in eV)
           1        1             -17174.0136011222             -17173.9814317010 ***
           1        2              -2315.7053418334              -2315.7048991412
           1        3               -367.5634836258               -367.5634701814
           1        4                -47.5700349641                -47.5700341510
           1        5                 -3.9166470599                 -3.9405343224
           1        6                  5.4157900041                  5.2488092547 ***
           1        7              -2062.8140067018              -2062.8140050077
           1        8               -285.8783062803               -285.8783052655
           1        9                -27.5286316570                -27.5286314708
           1       10                 -0.4751555111                 -0.5168430219 ***
           1       11               -151.0334479759               -151.0334476548
           1       12                 -2.2953267111                 -2.3030245365
           1       13                  5.2717035032                  5.1892255269 ***
           1       14                 10.5609833052                 10.5567324505
           2       15               -511.1960429777               -511.1959399133
           2       16                -23.7455964041                -23.7455972542
           2       17                 17.3746964700                 17.3748057881
           2       18                 -9.1890598667                 -9.1892026751
           2       19                  8.1915160719                  8.1720639763
           2       20                 45.8005976646                 45.8005620229
 * Note: Onsite integrals marked "***" above are less accurate than
 * onsite_accuracy_threshold =    0.03000 eV. Usually, this is harmless.
 * However, one integral did have a negative value. This integral could be important.
 * When in doubt, tighten the "radial" and/or "radial_multiplier" flags to check.

  Preparing densities etc. for the partition functions (integrals / Hartree potential).

  Preparations completed.
  max(cpu_time)          :      0.469 s.
  Wall clock time (cpu1) :      0.470 s.
------------------------------------------------------------

------------------------------------------------------------
          Begin self-consistency loop: Initialization.

          Date     :  20240509, Time     :  055251.021
------------------------------------------------------------

  Initializing index lists of integration centers etc. from given atomic structure:
  Mapping all atomic coordinates to central unit cell.

  Initializing the k-points
  Using symmetry for reducing the k-points
  | k-points reduced from:       27 to       14
  | Number of k-points                             :        14
  The eigenvectors in the calculations are COMPLEX.
  | Number of basis functions in the Hamiltonian integrals :      9714
  | Number of basis functions in a single unit cell        :      1952
  | Number of centers in hartree potential         :      2333
  | Number of centers in hartree multipole         :      1499
  | Number of centers in electron density summation:      1204
  | Number of centers in basis integrals           :      1302
  | Number of centers in integrals                 :       568
  | Number of centers in hamiltonian               :      1298
  | Consuming          6 KiB for k_phase.
  | Number of super-cells (origin) [n_cells]                     :         125
  | Number of super-cells (after PM_index) [n_cells]             :          28
  | Number of super-cells in hamiltonian [n_cells_in_hamiltonian]:          28
  | Size of matrix packed + index [n_hamiltonian_matrix_size] :     4190633
  | Estimated reciprocal-space cutoff momentum G_max:         2.69467344 bohr^-1 .
  | Reciprocal lattice points for long-range Hartree potential:    2600
  Using simple linear distribution as default method for k-point parallelism.
  * Using 80 tasks for Scalapack Eigenvalue solver.
  Detailed listing of tasks and assigned k-points:
   Task     0 k-point     1 on ccs0121
   Task     1 k-point     1 on ccs0121
   Task     2 k-point     1 on ccs0121
   Task     3 k-point     1 on ccs0121
   Task     4 k-point     1 on ccs0121
   Task     5 k-point     1 on ccs0121
   Task     6 k-point     2 on ccs0121
   Task     7 k-point     2 on ccs0121
   Task     8 k-point     2 on ccs0121
   Task     9 k-point     2 on ccs0121
   Task    10 k-point     2 on ccs0121
   Task    11 k-point     2 on ccs0121
   Task    12 k-point     3 on ccs0121
   Task    13 k-point     3 on ccs0121
   Task    14 k-point     3 on ccs0121
   Task    15 k-point     3 on ccs0121
   Task    16 k-point     3 on ccs0121
   Task    17 k-point     3 on ccs0121
   Task    18 k-point     4 on ccs0121
   Task    19 k-point     4 on ccs0121
   Task    20 k-point     4 on ccs0121
   Task    21 k-point     4 on ccs0121
   Task    22 k-point     4 on ccs0121
   Task    23 k-point     5 on ccs0121
   Task    24 k-point     5 on ccs0121
   Task    25 k-point     5 on ccs0121
   Task    26 k-point     5 on ccs0121
   Task    27 k-point     5 on ccs0121
   Task    28 k-point     5 on ccs0121
   Task    29 k-point     6 on ccs0121
   Task    30 k-point     6 on ccs0121
   Task    31 k-point     6 on ccs0121
   Task    32 k-point     6 on ccs0121
   Task    33 k-point     6 on ccs0121
   Task    34 k-point     6 on ccs0121
   Task    35 k-point     7 on ccs0121
   Task    36 k-point     7 on ccs0121
   Task    37 k-point     7 on ccs0121
   Task    38 k-point     7 on ccs0121
   Task    39 k-point     7 on ccs0121
   Task    40 k-point     8 on ccs0122
   Task    41 k-point     8 on ccs0122
   Task    42 k-point     8 on ccs0122
   Task    43 k-point     8 on ccs0122
   Task    44 k-point     8 on ccs0122
   Task    45 k-point     8 on ccs0122
   Task    46 k-point     9 on ccs0122
   Task    47 k-point     9 on ccs0122
   Task    48 k-point     9 on ccs0122
   Task    49 k-point     9 on ccs0122
   Task    50 k-point     9 on ccs0122
   Task    51 k-point     9 on ccs0122
   Task    52 k-point    10 on ccs0122
   Task    53 k-point    10 on ccs0122
   Task    54 k-point    10 on ccs0122
   Task    55 k-point    10 on ccs0122
   Task    56 k-point    10 on ccs0122
   Task    57 k-point    10 on ccs0122
   Task    58 k-point    11 on ccs0122
   Task    59 k-point    11 on ccs0122
   Task    60 k-point    11 on ccs0122
   Task    61 k-point    11 on ccs0122
   Task    62 k-point    11 on ccs0122
   Task    63 k-point    12 on ccs0122
   Task    64 k-point    12 on ccs0122
   Task    65 k-point    12 on ccs0122
   Task    66 k-point    12 on ccs0122
   Task    67 k-point    12 on ccs0122
   Task    68 k-point    12 on ccs0122
   Task    69 k-point    13 on ccs0122
   Task    70 k-point    13 on ccs0122
   Task    71 k-point    13 on ccs0122
   Task    72 k-point    13 on ccs0122
   Task    73 k-point    13 on ccs0122
   Task    74 k-point    13 on ccs0122
   Task    75 k-point    14 on ccs0122
   Task    76 k-point    14 on ccs0122
   Task    77 k-point    14 on ccs0122
   Task    78 k-point    14 on ccs0122
   Task    79 k-point    14 on ccs0122
  K-point:     1 Tasks:     6 split into      3 X      2 BLACS grid
  Calculating block size based on n_basis =         1952  max_nprow =            5  max_npcol =            2
  ScaLAPACK block size set to:           16
  Allocating        9.770 MB for ovlp_complex
  Allocating        9.770 MB for ham_complex
  Allocating        9.770 MB for eigenvec_complex
  Required Scalapack workspace - INTEGER:            1  REAL:             1  COMPLEX:            1
  Partitioning the integration grid into batches with parallel hashing+maxmin method.
  | Number of batches:     7857
  | Maximal batch size:     127
  | Minimal batch size:      51
  | Average batch size:      66.770
  | Standard deviation of batch sizes:      15.538

  Integration load balanced across    80 MPI tasks.
  Work distribution over tasks is as follows:
  Task     0 has       6572 integration points.
  Task     1 has       6597 integration points.
  Task     2 has       6583 integration points.
  Task     3 has       6573 integration points.
  Task     4 has       6556 integration points.
  Task     5 has       6546 integration points.
  Task     6 has       6569 integration points.
  Task     7 has       6542 integration points.
  Task     8 has       6555 integration points.
  Task     9 has       6542 integration points.
  Task    10 has       6533 integration points.
  Task    11 has       6581 integration points.
  Task    12 has       6554 integration points.
  Task    13 has       6534 integration points.
  Task    14 has       6585 integration points.
  Task    15 has       6563 integration points.
  Task    16 has       6588 integration points.
  Task    17 has       6569 integration points.
  Task    18 has       6563 integration points.
  Task    19 has       6601 integration points.
  Task    20 has       6545 integration points.
  Task    21 has       6553 integration points.
  Task    22 has       6571 integration points.
  Task    23 has       6559 integration points.
  Task    24 has       6549 integration points.
  Task    25 has       6573 integration points.
  Task    26 has       6535 integration points.
  Task    27 has       6541 integration points.
  Task    28 has       6539 integration points.
  Task    29 has       6539 integration points.
  Task    30 has       6552 integration points.
  Task    31 has       6542 integration points.
  Task    32 has       6566 integration points.
  Task    33 has       6552 integration points.
  Task    34 has       6560 integration points.
  Task    35 has       6575 integration points.
  Task    36 has       6546 integration points.
  Task    37 has       6554 integration points.
  Task    38 has       6545 integration points.
  Task    39 has       6557 integration points.
  Task    40 has       6590 integration points.
  Task    41 has       6543 integration points.
  Task    42 has       6558 integration points.
  Task    43 has       6564 integration points.
  Task    44 has       6547 integration points.
  Task    45 has       6538 integration points.
  Task    46 has       6540 integration points.
  Task    47 has       6543 integration points.
  Task    48 has       6550 integration points.
  Task    49 has       6562 integration points.
  Task    50 has       6584 integration points.
  Task    51 has       6544 integration points.
  Task    52 has       6617 integration points.
  Task    53 has       6547 integration points.
  Task    54 has       6555 integration points.
  Task    55 has       6555 integration points.
  Task    56 has       6568 integration points.
  Task    57 has       6536 integration points.
  Task    58 has       6549 integration points.
  Task    59 has       6558 integration points.
  Task    60 has       6553 integration points.
  Task    61 has       6548 integration points.
  Task    62 has       6549 integration points.
  Task    63 has       6533 integration points.
  Task    64 has       6551 integration points.
  Task    65 has       6536 integration points.
  Task    66 has       6539 integration points.
  Task    67 has       6556 integration points.
  Task    68 has       6540 integration points.
  Task    69 has       6534 integration points.
  Task    70 has       6591 integration points.
  Task    71 has       6585 integration points.
  Task    72 has       6576 integration points.
  Task    73 has       6594 integration points.
  Task    74 has       6551 integration points.
  Task    75 has       6551 integration points.
  Task    76 has       6547 integration points.
  Task    77 has       6546 integration points.
  Task    78 has       6577 integration points.
  Task    79 has       6544 integration points.
  Initializing partition tables, free-atom densities, potentials, etc. across the integration grid (initialize_grid_storage).
  | initialize_grid_storage: Actual outermost partition radius vs. multipole_radius_free
  | (-- VB: in principle, multipole_radius_free should be larger, hence this output)
  | Species        1: Confinement radius =              5.500000000000000 AA, multipole_radius_free =              5.527695778430734 AA.
  | Species        1: outer_partition_radius set to              5.527695778430734 AA .
  | Species        2: Confinement radius =              4.999999999999999 AA, multipole_radius_free =              5.048384829883283 AA.
  | Species        2: outer_partition_radius set to              5.048384829883283 AA .
  | The sparse table of interatomic distances needs       3693.89 kbyte instead of     13561.63 kbyte of memory.
  | Net number of integration points:   524608
  | of which are non-zero points    :   440128
  | Numerical average free-atom electrostatic potential    :    -18.47052217 eV
  Renormalizing the initial density to the exact electron count on the 3D integration grid.
  | Initial density: Formal number of electrons (from input files) :    1632.0000000000
  | Integrated number of electrons on 3D grid     :    1631.9484732044
  | Charge integration error                      :      -0.0515267956
  | Normalization factor for density and gradient :       1.0000315738
  Renormalizing the free-atom superposition density to the exact electron count on the 3D integration grid.
  | Formal number of electrons (from input files) :    1632.0000000000
  | Integrated number of electrons on 3D grid     :    1631.9484732044
  | Charge integration error                      :      -0.0515267956
  | Normalization factor for density and gradient :       1.0000315738
  Obtaining max. number of non-zero basis functions in each batch (get_n_compute_maxes).
  | Maximal number of non-zero basis functions:      834 in task     0
  | Maximal number of non-zero basis functions:      854 in task     1
  | Maximal number of non-zero basis functions:      856 in task     2
  | Maximal number of non-zero basis functions:      862 in task     3
  | Maximal number of non-zero basis functions:      861 in task     4
  | Maximal number of non-zero basis functions:      854 in task     5
  | Maximal number of non-zero basis functions:      853 in task     6
  | Maximal number of non-zero basis functions:      852 in task     7
  | Maximal number of non-zero basis functions:      842 in task     8
  | Maximal number of non-zero basis functions:      848 in task     9
  | Maximal number of non-zero basis functions:      846 in task    10
  | Maximal number of non-zero basis functions:      842 in task    11
  | Maximal number of non-zero basis functions:      841 in task    12
  | Maximal number of non-zero basis functions:      866 in task    13
  | Maximal number of non-zero basis functions:      821 in task    14
  | Maximal number of non-zero basis functions:      861 in task    15
  | Maximal number of non-zero basis functions:      859 in task    16
  | Maximal number of non-zero basis functions:      844 in task    17
  | Maximal number of non-zero basis functions:      852 in task    18
  | Maximal number of non-zero basis functions:      852 in task    19
  | Maximal number of non-zero basis functions:      910 in task    20
  | Maximal number of non-zero basis functions:      844 in task    21
  | Maximal number of non-zero basis functions:      874 in task    22
  | Maximal number of non-zero basis functions:      860 in task    23
  | Maximal number of non-zero basis functions:      847 in task    24
  | Maximal number of non-zero basis functions:      868 in task    25
  | Maximal number of non-zero basis functions:      852 in task    26
  | Maximal number of non-zero basis functions:      862 in task    27
  | Maximal number of non-zero basis functions:      859 in task    28
  | Maximal number of non-zero basis functions:      860 in task    29
  | Maximal number of non-zero basis functions:      857 in task    30
  | Maximal number of non-zero basis functions:      836 in task    31
  | Maximal number of non-zero basis functions:      861 in task    32
  | Maximal number of non-zero basis functions:      854 in task    33
  | Maximal number of non-zero basis functions:      835 in task    34
  | Maximal number of non-zero basis functions:      865 in task    35
  | Maximal number of non-zero basis functions:      881 in task    36
  | Maximal number of non-zero basis functions:      861 in task    37
  | Maximal number of non-zero basis functions:      877 in task    38
  | Maximal number of non-zero basis functions:      875 in task    39
  | Maximal number of non-zero basis functions:      884 in task    40
  | Maximal number of non-zero basis functions:      842 in task    41
  | Maximal number of non-zero basis functions:      853 in task    42
  | Maximal number of non-zero basis functions:      845 in task    43
  | Maximal number of non-zero basis functions:      829 in task    44
  | Maximal number of non-zero basis functions:      839 in task    45
  | Maximal number of non-zero basis functions:      832 in task    46
  | Maximal number of non-zero basis functions:      887 in task    47
  | Maximal number of non-zero basis functions:      863 in task    48
  | Maximal number of non-zero basis functions:      856 in task    49
  | Maximal number of non-zero basis functions:      873 in task    50
  | Maximal number of non-zero basis functions:      868 in task    51
  | Maximal number of non-zero basis functions:      863 in task    52
  | Maximal number of non-zero basis functions:      834 in task    53
  | Maximal number of non-zero basis functions:      832 in task    54
  | Maximal number of non-zero basis functions:      860 in task    55
  | Maximal number of non-zero basis functions:      853 in task    56
  | Maximal number of non-zero basis functions:      863 in task    57
  | Maximal number of non-zero basis functions:      856 in task    58
  | Maximal number of non-zero basis functions:      909 in task    59
  | Maximal number of non-zero basis functions:      830 in task    60
  | Maximal number of non-zero basis functions:      850 in task    61
  | Maximal number of non-zero basis functions:      875 in task    62
  | Maximal number of non-zero basis functions:      850 in task    63
  | Maximal number of non-zero basis functions:      850 in task    64
  | Maximal number of non-zero basis functions:      876 in task    65
  | Maximal number of non-zero basis functions:      860 in task    66
  | Maximal number of non-zero basis functions:      842 in task    67
  | Maximal number of non-zero basis functions:      871 in task    68
  | Maximal number of non-zero basis functions:      857 in task    69
  | Maximal number of non-zero basis functions:      838 in task    70
  | Maximal number of non-zero basis functions:      867 in task    71
  | Maximal number of non-zero basis functions:      862 in task    72
  | Maximal number of non-zero basis functions:      858 in task    73
  | Maximal number of non-zero basis functions:      836 in task    74
  | Maximal number of non-zero basis functions:      846 in task    75
  | Maximal number of non-zero basis functions:      879 in task    76
  | Maximal number of non-zero basis functions:      850 in task    77
  | Maximal number of non-zero basis functions:      833 in task    78
  | Maximal number of non-zero basis functions:      848 in task    79
  Integrating Hamiltonian matrix: batch-based integration.
  Time summed over all CPUs for integration: real work       81.964 s, elapsed       85.758 s
  Integrating overlap matrix.
  Time summed over all CPUs for integration: real work       53.919 s, elapsed       56.685 s
[...]
   1126       0.00000           0.439223           11.95187
   1127       0.00000           0.439225           11.95192
   1128       0.00000           0.439225           11.95193
   1129       0.00000           0.441493           12.01365
   1130       0.00000           0.441496           12.01371
   1131       0.00000           0.444750           12.10226
   1132       0.00000           0.444752           12.10233
   1133       0.00000           0.444753           12.10234
   1134       0.00000           0.449969           12.24427
   1135       0.00000           0.449969           12.24428
   1136       0.00000           0.449973           12.24439

  What follows are estimated values for band gap, HOMO, LUMO, etc.
  | They are estimated on a discrete k-point grid and not necessarily exact.
  | For converged numbers, create a DOS and/or band structure plot on a denser k-grid.

  Highest occupied state (VBM) at     -9.67490770 eV (relative to internal zero)
  | Occupation number:      2.00000000
  | K-point:       6 at    0.333333    0.000000    0.000000 (in units of recip. lattice)

  Lowest unoccupied state (CBM) at    -4.56428275 eV (relative to internal zero)
  | Occupation number:      0.00000001
  | K-point:       1 at    0.000000    0.000000    0.000000 (in units of recip. lattice)

  ESTIMATED overall HOMO-LUMO gap:      5.11062494 eV between HOMO at k-point 6 and LUMO at k-point 1
  | This appears to be an indirect band gap.
  | Smallest direct gap :      5.12916218 eV for k_point 1 at    0.000000    0.000000    0.000000 (in units of recip. lattice)
  The gap value is above 0.2 eV. Unless you are using a very sparse k-point grid,
  this system is most likely an insulator or a semiconductor.

  Self-consistency cycle converged.

  End self-consistency iteration #    27       :  max(cpu_time)    wall_clock(cpu1)
  | Time for this iteration                    :        6.521 s           6.674 s
  | Charge density & force component update    :        0.000 s           0.000 s
  | Density mixing                             :        0.014 s           0.006 s
  | Hartree multipole update                   :        0.005 s           0.005 s
  | Hartree multipole summation                :        2.280 s           2.286 s
  | Integration                                :        1.670 s           1.674 s
  | Solution of K.-S. eqns.                    :        2.477 s           2.483 s
  | Total energy evaluation                    :        0.008 s           0.072 s

  Partial memory accounting:
  | Current value for overall tracked memory usage:
  |   Minimum:       99.894 MB (on task  4)
  |   Maximum:      107.042 MB (on task 18)
  |   Average:      101.824 MB
  | Peak value for overall tracked memory usage:
  |   Minimum:      135.317 MB (on task  4 after allocating temp_ham_ovlp)
  |   Maximum:      142.466 MB (on task 18 after allocating temp_ham_ovlp)
  |   Average:      137.248 MB
  | Largest tracked array allocation so far:
  |   Minimum:       31.972 MB (overlap_matrix on task  0)
  |   Maximum:       31.972 MB (overlap_matrix on task  0)
  |   Average:       31.972 MB
  Note:  These values currently only include a subset of arrays which are explicitly tracked.
  The "true" memory usage will be greater.
------------------------------------------------------------
  Removing unitary transformations (pure translations, rotations) from forces on atoms.
  Atomic forces before filtering:
  | Net force on center of mass :  -0.311377E-05  0.895192E-06 -0.165887E-07 eV/A
  Atomic forces after filtering:
  | Net force on center of mass :   0.557519E-17  0.557519E-17 -0.418139E-17 eV/A

  Energy and forces in a compact form:
  | Total energy uncorrected      :         -0.307424971821907E+07 eV
  | Total energy corrected        :         -0.307424971821907E+07 eV  <-- do not rely on this value for anything but (periodic) metals
  | Electronic free energy        :         -0.307424971821907E+07 eV
  Total atomic forces (unitary forces cleaned) [eV/Ang]:
  |    1          0.904671183928774E-06          0.821850363091468E-05          0.842690937327199E-05
  |    2         -0.392437056508019E-05          0.392654216022765E-05         -0.507999159754643E-05
  |    3         -0.351691228301393E-05         -0.328953299843781E-05          0.372316107674358E-05
  |    4         -0.420683568599177E-06          0.297981128642298E-05          0.269969962103842E-05
  |    5         -0.718399596379796E-05         -0.384975029239276E-05         -0.310479543970937E-05
  |    6         -0.176461884343564E-05         -0.102020387084900E-05         -0.209268268764823E-05
  |    7          0.140312229714570E-04          0.113570566117687E-04         -0.134550104927610E-04
  |    8         -0.951448024850967E-05          0.122096339198878E-05          0.122965589864217E-05
  |    9         -0.234308244404438E-05         -0.402282066967319E-02         -0.203269846297149E-05
  |   10         -0.247689829273534E-04         -0.401850928921528E-02          0.880682529873930E-05
  |   11          0.675063343705662E-05          0.401973287868506E-02          0.216286340858311E-05
  |   12          0.423820039145252E-05          0.873213973253791E-05         -0.400183068133061E-02
  |   13          0.114025811322177E-05         -0.109145891906493E-05         -0.400886996557021E-02
  |   14          0.497542143374398E-05         -0.815835543270449E-05          0.400441910615284E-02
  |   15         -0.402863760424889E-02         -0.376993223319760E-05          0.153242973217315E-04
  |   16         -0.402792112932063E-02          0.366918781220212E-07          0.558988278045477E-05
  |   17          0.401886476512128E-02         -0.128598891879744E-04          0.382023652307644E-05
  |   18          0.171512339728392E-04          0.401764459157937E-02         -0.176516544306219E-05
  |   19          0.130815129494259E-04          0.401410646344395E-02         -0.309120260969699E-05
  |   20          0.137303160304795E-05         -0.402529649822836E-02          0.388277259663130E-05
  |   21          0.552964533822635E-05         -0.769816907123763E-05          0.400042034948887E-02
  |   22          0.296537281978275E-05          0.412783740681817E-05          0.400261058866147E-02
  |   23         -0.955632120586771E-05          0.146299569180203E-04         -0.399436065136416E-02
  |   24          0.403773778848728E-02          0.118670384132201E-05         -0.196943593491930E-04
  |   25          0.401846680748270E-02         -0.226157868283618E-05         -0.458311930119899E-05
  |   26         -0.402831034583529E-02          0.150170888933095E-05         -0.427903311359289E-05
  |   27          0.117144058339695E-04          0.401160214951851E-02          0.522157856761575E-05
  |   28         -0.141638933268727E-04          0.764630882567751E-05          0.400893347902004E-02
  |   29          0.403738722599770E-02          0.464829332556985E-05          0.164606266322079E-04
  |   30         -0.164332791652190E-04         -0.401642305952192E-02         -0.442348335461377E-05
  |   31          0.322737125709278E-05         -0.262334241108925E-05         -0.400386825354754E-02
  |   32         -0.402896688691984E-02         -0.138440884747474E-04         -0.216239016658066E-04
  |   33         -0.193366289202535E-02          0.845352818807272E-02         -0.302796821846640E-02
  |   34          0.194007020491806E-02          0.845049647436669E-02          0.303360823045657E-02
  |   35          0.193383656645759E-02         -0.845136820830071E-02         -0.302818762813317E-02
  |   36         -0.194325994073874E-02         -0.845045010910489E-02          0.303446188772242E-02
  |   37         -0.304195275314915E-02         -0.193903583895206E-02          0.844822355630911E-02
  |   38          0.304142320797440E-02          0.193481372400736E-02          0.844613893819561E-02
  |   39         -0.304679246614346E-02          0.193609681967040E-02         -0.845059149991662E-02
  |   40          0.304652038974248E-02         -0.193404954390145E-02         -0.845199547811353E-02
  |   41          0.842878824772004E-02         -0.301460833757192E-02         -0.193126954136549E-02
  |   42          0.843193462877686E-02          0.301617329484206E-02          0.194010254472918E-02
  |   43         -0.843194228177099E-02         -0.301286189836969E-02          0.194244215544284E-02
  |   44         -0.842705785751627E-02          0.301755832958705E-02         -0.193602594815664E-02
  |   45          0.193788870314318E-02         -0.845361220616459E-02          0.302687090076005E-02
  |   46         -0.194162857100508E-02         -0.844997653209987E-02         -0.303264269132644E-02
  |   47         -0.193434450922603E-02          0.845052591132630E-02          0.302743198727233E-02
  |   48          0.194553772423387E-02          0.845372556792529E-02         -0.303432719218801E-02
  |   49          0.304120757537947E-02          0.193596560542076E-02         -0.844684226835283E-02
  |   50         -0.303952930405543E-02         -0.193783371390025E-02         -0.845041131507378E-02
  |   51          0.304730778848899E-02         -0.193294402633026E-02          0.845421902379610E-02
  |   52         -0.304853169326774E-02          0.193366123435156E-02          0.845442692662245E-02
  |   53         -0.842769583810779E-02          0.301885319762809E-02          0.192930483007738E-02
  |   54         -0.843426769932468E-02         -0.301423947204981E-02         -0.193952529251166E-02
  |   55          0.843215888648044E-02          0.301542562613427E-02         -0.194188685172386E-02
  |   56          0.842906584061268E-02         -0.301921295104316E-02          0.193308021077485E-02
  |   57         -0.193894873575584E-02          0.845750399740265E-02         -0.303087095003192E-02
  |   58          0.194114578796808E-02          0.845061533481923E-02          0.303752129360978E-02
  |   59          0.193698851226690E-02         -0.845737659213750E-02         -0.302856206868069E-02
  |   60         -0.194199760801884E-02         -0.845045665939075E-02          0.303409337258261E-02
  |   61         -0.304003721796099E-02         -0.194195118627706E-02          0.844848933797732E-02
  |   62          0.304097861392061E-02          0.193894225176499E-02          0.845020652652514E-02
  |   63         -0.305070035160712E-02          0.193619203476248E-02         -0.845192708466158E-02
  |   64          0.304599401480793E-02         -0.193240208728452E-02         -0.845284024523912E-02
  |   65          0.842933355769751E-02         -0.302033237075273E-02         -0.193638497627159E-02
  |   66          0.843273040405695E-02          0.301702062503360E-02          0.194456348572265E-02
  |   67         -0.843448209100145E-02         -0.301454969939023E-02          0.194414105338652E-02
  |   68         -0.842734753283377E-02          0.301571068406478E-02         -0.193427476694473E-02
  |   69          0.194219765404058E-02         -0.845755636119033E-02          0.302611967487533E-02
  |   70         -0.194211624617544E-02         -0.845084619749727E-02         -0.303275416640017E-02
  |   71         -0.193837779999895E-02          0.845566380628463E-02          0.303058156787984E-02
  |   72          0.194330537072017E-02          0.845510815827951E-02         -0.303105469425519E-02
  |   73          0.304063714075566E-02          0.193950361661803E-02         -0.844956257871445E-02
  |   74         -0.303587619667027E-02         -0.194050283201354E-02         -0.845045915018381E-02
  |   75          0.304827037947357E-02         -0.193204508479319E-02          0.845158016319056E-02
  |   76         -0.304622287920317E-02          0.193230557710762E-02          0.845290869431866E-02
  |   77         -0.842806102459128E-02          0.302217505645574E-02          0.193385226459857E-02
  |   78         -0.843651314329323E-02         -0.301718097553972E-02         -0.194279366869294E-02
  |   79          0.843421439179209E-02          0.301392943892222E-02         -0.194310590536128E-02
  |   80          0.842769806048519E-02         -0.301588445370488E-02          0.193231851684841E-02

  ------------------------------------ 
  Start decomposition of the XC Energy 
  ------------------------------------ 
  X and C from original XC functional choice 
  Hartree-Fock Energy :          0.000000000 Ha              0.000000000 eV
  X Energy            :      -3973.725899112 Ha        -108130.583338335 eV
  C Energy            :        -87.189590850 Ha          -2372.549481020 eV
  Total XC Energy     :      -4060.915489962 Ha        -110503.132819356 eV
  ------------------------------------ 
  LDA X and C from self-consistent density 
  X Energy LDA        :      -3647.891688121 Ha         -99264.183339821 eV
  C Energy LDA        :       -142.018496142 Ha          -3864.519904639 eV
  ------------------------------------ 
  End decomposition of the XC Energy 
  ------------------------------------ 

------------------------------------------------------------

------------------------------------------------------------------------------
  Final output of selected total energy values:

  The following output summarizes some interesting total energy values
  at the end of a run (AFTER all relaxation, molecular dynamics, etc.).

  | Total energy of the DFT / Hartree-Fock s.c.f. calculation      :       -3074249.718219075 eV
  | Final zero-broadening corrected energy (caution - metals only) :       -3074249.718219075 eV
  | For reference only, the value of 1 Hartree used in FHI-aims is :             27.211384500 eV
  | For reference only, the overall average (free atom contribution
  | + realspace contribution) of the electrostatic potential after
  | s.c.f. convergence is                                          :            -17.228462664 eV

  Before relying on these values, please be sure to understand exactly which
  total energy value is referred to by a given number. Different objects may
  all carry the same name 'total energy'. Definitions:

  Total energy of the DFT / Hartree-Fock s.c.f. calculation:
  | Note that this energy does not include ANY quantities calculated after the
  | s.c.f. cycle, in particular not ANY RPA, MP2, etc. many-body perturbation terms.

  Final zero-broadening corrected energy:
  | For metallic systems only, a broadening of the occupation numbers at the Fermi
  | level can be extrapolated back to zero broadening by an electron-gas inspired
  | formula. For all systems that are not real metals, this value can be
  | meaningless and should be avoided.

------------------------------------------------------------------------------
  Methods described in the following list of references were used in this FHI-aims run.
  If you publish the results, please make sure to cite these reference if they apply.
  FHI-aims is an academic code, and for our developers (often, Ph.D. students
  and postdocs), scientific credit in the community is essential.
  Thank you for helping us!

  For any use of FHI-aims, please cite:

    Volker Blum, Ralf Gehrke, Felix Hanke, Paula Havu, Ville Havu,
    Xinguo Ren, Karsten Reuter, and Matthias Scheffler
    'Ab initio molecular simulations with numeric atom-centered orbitals'
    Computer Physics Communications 180, 2175-2196 (2009)
    http://dx.doi.org/10.1016/j.cpc.2009.06.022


  The provided symmetry information was generated with SPGlib:

    Atsushi Togo, Yusuke Seto, Dimitar Pashov
    SPGlib 1.7.3 obtained from http://spglib.sourceforge.net
    Copyright (C) 2008 Atsushi Togo


 DFT+U infrastructure was used in your run
 please cite:

 Matthias Kick, Karsten Reuter and Harald Oberhofer,
 Intricacies Of DFT+U, not only in a Numeric Atom Centered Orbital Framework

 Journal of Chemical Theory and Computation
 https://


  The ELSI infrastructure was used in your run to solve the Kohn-Sham electronic structure.
  Please check out http://elsi-interchange.org to learn more.
  If scalability is important for your project, please acknowledge ELSI by citing:

    V. W-z. Yu, F. Corsetti, A. Garcia, W. P. Huhn, M. Jacquelin, W. Jia,
    B. Lange, L. Lin, J. Lu, W. Mi, A. Seifitokaldani, A. Vazquez-Mayagoitia,
    C. Yang, H. Yang, and V. Blum
    'ELSI: A unified software interface for Kohn-Sham electronic structure solvers'
    Computer Physics Communications 222, 267-285 (2018).
    http://dx.doi.org/10.1016/j.cpc.2017.09.007


  For the real-space grid partitioning and parallelization used in this calculation, please cite:

    Ville Havu, Volker Blum, Paula Havu, and Matthias Scheffler,
    'Efficient O(N) integration for all-electron electronic structure calculation'
    'using numerically tabulated basis functions'
    Journal of Computational Physics 228, 8367-8379 (2009).
    http://dx.doi.org/10.1016/j.jcp.2009.08.008

  Of course, there are many other important community references, e.g., those cited in the
  above references. Our list is limited to references that describe implementations in the
  FHI-aims code. The reason is purely practical (length of this list) - please credit others as well.

 * A warning was issued further up regarding the accuracy of onsite integrals.
   An integral with a negative eigenvalue was among the flagged integrals.
   In most standard situations, this warning is probably harmless.
   If needed, this can be verified by adjusting the radial_multiplier flag.

------------------------------------------------------------
          Leaving FHI-aims.
          Date     :  20240509, Time     :  055702.919

          Computational steps:
          | Number of self-consistency cycles          :           27
          | Number of SCF (re)initializations          :            1

          Detailed time accounting                     :  max(cpu_time)    wall_clock(cpu1)
          | Total time                                 :      251.847 s         252.744 s
          | Preparation time                           :        0.469 s           0.470 s
          | Boundary condition initalization           :        0.706 s           0.707 s
          | Grid partitioning                          :        0.279 s           0.280 s
          | Preloading free-atom quantities on grid    :        0.513 s           0.524 s
          | Free-atom superposition energy             :        0.083 s           0.083 s
          | Total time for integrations                :       47.970 s          48.087 s
          | Total time for solution of K.-S. equations :       71.596 s          71.235 s
          | Total time for density & force components  :       78.012 s          78.180 s
          | Total time for mixing & preconditioning    :       20.109 s          19.992 s
          | Total time for Hartree multipole update    :        0.132 s           0.147 s
          | Total time for Hartree multipole sum       :       24.457 s          24.520 s
          | Total time for total energy evaluation     :        0.284 s           0.166 s
          | Total time for scaled ZORA corrections     :        0.000 s           0.000 s

          Partial memory accounting:
          | Residual value for overall tracked memory usage across tasks:     0.000000 MB (should be 0.000000 MB)
          | Peak values for overall tracked memory usage:
          |   Minimum:      135.317 MB (on task  4 after allocating temp_ham_ovlp)
          |   Maximum:      142.466 MB (on task 18 after allocating temp_ham_ovlp)
          |   Average:      137.248 MB
          | Largest tracked array allocation:
          |   Minimum:       31.972 MB (overlap_matrix on task  0)
          |   Maximum:       31.972 MB (overlap_matrix on task  0)
          |   Average:       31.972 MB
          Note:  These values currently only include a subset of arrays which are explicitly tracked.
          The "true" memory usage will be greater.

          Have a nice day.
------------------------------------------------------------
