------------------------------------------------------------
          Invoking FHI-aims ...

          When using FHI-aims, please cite the following reference:

            Volker Blum, Ralf Gehrke, Felix Hanke, Paula Havu,
            Ville Havu, Xinguo Ren, Karsten Reuter, and Matthias Scheffler,
            'Ab Initio Molecular Simulations with Numeric Atom-Centered Orbitals',
            Computer Physics Communications 180, 2175-2196 (2009)

          In addition, many other developments in FHI-aims are likely important for
          your particular application. If so, please cite them. A partial list of references
          is written at the end of this file. Thank you for giving credit to the authors
          of these developments.

          For general information about FHI-aims please find us at

            https://fhi-aims.org

          Online tutorials can be found at

            https://fhi-aims-club.gitlab.io/tutorials/tutorials-overview/

          For any questions about FHI-aims, please visit our slack channel at

            https://fhi-aims.slack.com

          and our main development and support site at

            https://aims-git.rz-berlin.mpg.de .

          The latter site, in particular, has a wiki to collect information, as well
          as an issue tracker to log discussions, suggest improvements, and report issues
          or bugs. https://aims-git.rz-berlin.mpg.de is also the main development site
          of the project and all new and updated code versions can be obtained there.
          Please send an email to aims-coordinators@fhi-berlin.mpg.de and we will add
          you to these sites. They are for you and everyone is welcome there.

------------------------------------------------------------



  Date     :  20240522, Time     :  104621.882
  Time zero on CPU 1             :   0.306263000000000E+00  s.
  Internal wall clock time zero  :           485606781.882  s.

  FHI-aims created a unique identifier for this run for later identification
  aims_uuid : 64A49074-2882-4910-AF15-D608B8B8E410

  Build configuration of the current instance of FHI-aims
  -------------------------------------------------------
  FHI-aims version      : 230612
  Commit number         : 0c86b0d53
  CMake host system     : Linux-3.10.0-1160.80.1.el7.x86_64
  CMake version         : 3.24.2
  Fortran compiler      : /apps/compilers/intel/2018.2/compilers_and_libraries_2018/linux/mpi/intel64/bin/mpif90 (Intel) version 18.0.2.20180210
  Fortran compiler flags: -O3 -ip -fp-model precise
  C compiler            : /apps/compilers/intel/2018.2/compilers_and_libraries_2018/linux/bin/intel64/icc (Intel) version 18.0.2.20180210
  C compiler flags      : -O3 -ip -fp-model precise -std=gnu99
  HIP compiler          :
  HIP compiler flags    :
  HIP GPU arch          :
  ELPA2 kernel          : AVX2
  Using MPI
  Using ScaLAPACK
  Using LibXC
  Using i-PI
  Using RLSY
  Linking against: /apps/compilers/intel/2018.2/compilers_and_libraries_2018/linux/mkl/lib/intel64/libmkl_intel_lp64.so
                   /apps/compilers/intel/2018.2/compilers_and_libraries_2018/linux/mkl/lib/intel64/libmkl_intel_thread.so
                   /apps/compilers/intel/2018.2/compilers_and_libraries_2018/linux/mkl/lib/intel64/libmkl_core.so
                   /apps/compilers/intel/2018.2/compilers_and_libraries_2018/linux/mkl/lib/intel64/libmkl_blacs_intelmpi_lp64.so
                   /apps/compilers/intel/2018.2/compilers_and_libraries_2018/linux/mkl/lib/intel64/libmkl_scalapack_lp64.so
                   /usr/lib64/libpthread.so

  Using      200 parallel tasks.
  Task        0 on host ccs1002 reporting.
  Task        1 on host ccs1002 reporting.
  Task        2 on host ccs1002 reporting.
  Task        3 on host ccs1002 reporting.
  Task        4 on host ccs1002 reporting.
  Task        5 on host ccs1002 reporting.
  Task        6 on host ccs1002 reporting.
  Task        7 on host ccs1002 reporting.
  Task        8 on host ccs1002 reporting.
  Task        9 on host ccs1002 reporting.
  Task       10 on host ccs1002 reporting.
  Task       11 on host ccs1002 reporting.
  Task       12 on host ccs1002 reporting.
  Task       13 on host ccs1002 reporting.
  Task       14 on host ccs1002 reporting.
  Task       15 on host ccs1002 reporting.
  Task       16 on host ccs1002 reporting.
  Task       17 on host ccs1002 reporting.
  Task       18 on host ccs1002 reporting.
  Task       19 on host ccs1002 reporting.
  Task       20 on host ccs1002 reporting.
  Task       21 on host ccs1002 reporting.
  Task       22 on host ccs1002 reporting.
  Task       23 on host ccs1002 reporting.
  Task       24 on host ccs1002 reporting.
  Task       25 on host ccs1002 reporting.
  Task       26 on host ccs1002 reporting.
  Task       27 on host ccs1002 reporting.
  Task       28 on host ccs1002 reporting.
  Task       29 on host ccs1002 reporting.
  Task       30 on host ccs1002 reporting.
  Task       31 on host ccs1002 reporting.
  Task       32 on host ccs1002 reporting.
  Task       33 on host ccs1002 reporting.
  Task       34 on host ccs1002 reporting.
  Task       35 on host ccs1002 reporting.
  Task       36 on host ccs1002 reporting.
  Task       37 on host ccs1002 reporting.
  Task       38 on host ccs1002 reporting.
  Task       39 on host ccs1002 reporting.
  Task       40 on host ccs1004 reporting.
  Task       41 on host ccs1004 reporting.
  Task       42 on host ccs1004 reporting.
  Task       43 on host ccs1004 reporting.
  Task       44 on host ccs1004 reporting.
  Task       45 on host ccs1004 reporting.
  Task       46 on host ccs1004 reporting.
  Task       47 on host ccs1004 reporting.
  Task       48 on host ccs1004 reporting.
  Task       49 on host ccs1004 reporting.
  Task       50 on host ccs1004 reporting.
  Task       51 on host ccs1004 reporting.
  Task       52 on host ccs1004 reporting.
  Task       53 on host ccs1004 reporting.
  Task       54 on host ccs1004 reporting.
  Task       55 on host ccs1004 reporting.
  Task       56 on host ccs1004 reporting.
  Task       57 on host ccs1004 reporting.
  Task       58 on host ccs1004 reporting.
  Task       59 on host ccs1004 reporting.
  Task       60 on host ccs1004 reporting.
  Task       61 on host ccs1004 reporting.
  Task       62 on host ccs1004 reporting.
  Task       63 on host ccs1004 reporting.
  Task       64 on host ccs1004 reporting.
  Task       65 on host ccs1004 reporting.
  Task       66 on host ccs1004 reporting.
  Task       67 on host ccs1004 reporting.
  Task       68 on host ccs1004 reporting.
  Task       69 on host ccs1004 reporting.
  Task       70 on host ccs1004 reporting.
  Task       71 on host ccs1004 reporting.
  Task       72 on host ccs1004 reporting.
  Task       73 on host ccs1004 reporting.
  Task       74 on host ccs1004 reporting.
  Task       75 on host ccs1004 reporting.
  Task       76 on host ccs1004 reporting.
  Task       77 on host ccs1004 reporting.
  Task       78 on host ccs1004 reporting.
  Task       79 on host ccs1004 reporting.
  Task       80 on host ccs1005 reporting.
  Task       81 on host ccs1005 reporting.
  Task       82 on host ccs1005 reporting.
  Task       83 on host ccs1005 reporting.
  Task       84 on host ccs1005 reporting.
  Task       85 on host ccs1005 reporting.
  Task       86 on host ccs1005 reporting.
  Task       87 on host ccs1005 reporting.
  Task       88 on host ccs1005 reporting.
  Task       89 on host ccs1005 reporting.
  Task       90 on host ccs1005 reporting.
  Task       91 on host ccs1005 reporting.
  Task       92 on host ccs1005 reporting.
  Task       93 on host ccs1005 reporting.
  Task       94 on host ccs1005 reporting.
  Task       95 on host ccs1005 reporting.
  Task       96 on host ccs1005 reporting.
  Task       97 on host ccs1005 reporting.
  Task       98 on host ccs1005 reporting.
  Task       99 on host ccs1005 reporting.
  Task      100 on host ccs1005 reporting.
  Task      101 on host ccs1005 reporting.
  Task      102 on host ccs1005 reporting.
  Task      103 on host ccs1005 reporting.
  Task      104 on host ccs1005 reporting.
  Task      105 on host ccs1005 reporting.
  Task      106 on host ccs1005 reporting.
  Task      107 on host ccs1005 reporting.
  Task      108 on host ccs1005 reporting.
  Task      109 on host ccs1005 reporting.
  Task      110 on host ccs1005 reporting.
  Task      111 on host ccs1005 reporting.
  Task      112 on host ccs1005 reporting.
  Task      113 on host ccs1005 reporting.
  Task      114 on host ccs1005 reporting.
  Task      115 on host ccs1005 reporting.
  Task      116 on host ccs1005 reporting.
  Task      117 on host ccs1005 reporting.
  Task      118 on host ccs1005 reporting.
  Task      119 on host ccs1005 reporting.
  Task      120 on host ccs1013 reporting.
  Task      121 on host ccs1013 reporting.
  Task      122 on host ccs1013 reporting.
  Task      123 on host ccs1013 reporting.
  Task      124 on host ccs1013 reporting.
  Task      125 on host ccs1013 reporting.
  Task      126 on host ccs1013 reporting.
  Task      127 on host ccs1013 reporting.
  Task      128 on host ccs1013 reporting.
  Task      129 on host ccs1013 reporting.
  Task      130 on host ccs1013 reporting.
  Task      131 on host ccs1013 reporting.
  Task      132 on host ccs1013 reporting.
  Task      133 on host ccs1013 reporting.
  Task      134 on host ccs1013 reporting.
  Task      135 on host ccs1013 reporting.
  Task      136 on host ccs1013 reporting.
  Task      137 on host ccs1013 reporting.
  Task      138 on host ccs1013 reporting.
  Task      139 on host ccs1013 reporting.
  Task      140 on host ccs1013 reporting.
  Task      141 on host ccs1013 reporting.
  Task      142 on host ccs1013 reporting.
  Task      143 on host ccs1013 reporting.
  Task      144 on host ccs1013 reporting.
  Task      145 on host ccs1013 reporting.
  Task      146 on host ccs1013 reporting.
  Task      147 on host ccs1013 reporting.
  Task      148 on host ccs1013 reporting.
  Task      149 on host ccs1013 reporting.
  Task      150 on host ccs1013 reporting.
  Task      151 on host ccs1013 reporting.
  Task      152 on host ccs1013 reporting.
  Task      153 on host ccs1013 reporting.
  Task      154 on host ccs1013 reporting.
  Task      155 on host ccs1013 reporting.
  Task      156 on host ccs1013 reporting.
  Task      157 on host ccs1013 reporting.
  Task      158 on host ccs1013 reporting.
  Task      159 on host ccs1013 reporting.
  Task      160 on host ccs1015 reporting.
  Task      161 on host ccs1015 reporting.
  Task      162 on host ccs1015 reporting.
  Task      163 on host ccs1015 reporting.
  Task      164 on host ccs1015 reporting.
  Task      165 on host ccs1015 reporting.
  Task      166 on host ccs1015 reporting.
  Task      167 on host ccs1015 reporting.
  Task      168 on host ccs1015 reporting.
  Task      169 on host ccs1015 reporting.
  Task      170 on host ccs1015 reporting.
  Task      171 on host ccs1015 reporting.
  Task      172 on host ccs1015 reporting.
  Task      173 on host ccs1015 reporting.
  Task      174 on host ccs1015 reporting.
  Task      175 on host ccs1015 reporting.
  Task      176 on host ccs1015 reporting.
  Task      177 on host ccs1015 reporting.
  Task      178 on host ccs1015 reporting.
  Task      179 on host ccs1015 reporting.
  Task      180 on host ccs1015 reporting.
  Task      181 on host ccs1015 reporting.
  Task      182 on host ccs1015 reporting.
  Task      183 on host ccs1015 reporting.
  Task      184 on host ccs1015 reporting.
  Task      185 on host ccs1015 reporting.
  Task      186 on host ccs1015 reporting.
  Task      187 on host ccs1015 reporting.
  Task      188 on host ccs1015 reporting.
  Task      189 on host ccs1015 reporting.
  Task      190 on host ccs1015 reporting.
  Task      191 on host ccs1015 reporting.
  Task      192 on host ccs1015 reporting.
  Task      193 on host ccs1015 reporting.
  Task      194 on host ccs1015 reporting.
  Task      195 on host ccs1015 reporting.
  Task      196 on host ccs1015 reporting.
  Task      197 on host ccs1015 reporting.
  Task      198 on host ccs1015 reporting.
  Task      199 on host ccs1015 reporting.

  Obtaining array dimensions for all initial allocations:
  
  -----------------------------------------------------------------------
  Parsing control.in (first pass over file, find array dimensions only).
  The contents of control.in will be repeated verbatim below
  unless switched off by setting 'verbatim_writeout .false.' .
  in the first line of control.in .
  -----------------------------------------------------------------------
  
  #===============================================================================
  # FHI-aims file: ./control.in
  # Created using the Atomic Simulation Environment (ASE)
  # Wed May 22 10:46:19 2024
  #===============================================================================
  spin                               none
  relativistic                       atomic_zora scalar
  compute_forces                     .true.
  xc                                 pbe0
  k_grid                             5 4 5
  occupation_type                    gaussian 0.1
  plus_u_petukhov_mixing             1
  plus_u_matrix_control              True
  sc_accuracy_etot                   1e-06
  sc_accuracy_eev                    0.001
  sc_accuracy_rho                    1e-06
  sc_accuracy_forces                 0.0001
  #===============================================================================
  
  ################################################################################
  #
  #  FHI-aims code project
  #  VB, Fritz-Haber Institut, 2009
  #
  #  Suggested "light" defaults for Zr atom (to be pasted into control.in file)
  #  Be sure to double-check any results obtained with these settings for post-processing,
  #  e.g., with the "tight" defaults and larger basis sets.
  #
  ################################################################################
    species          Zr
  #     global species definitions
      nucleus        40
      mass           91.224
  #
      l_hartree      4
  #
      cut_pot        3.5  1.5  1.0
      basis_dep_cutoff    1e-4
  #
      radial_base    58  5.0
      radial_multiplier  1
      angular_grids specified
        division   0.5825   50
        division   1.1060  110
        division   1.4586  194
        division   1.7061  302
  #      division   1.9320  434
  #      division   2.2803  590
  #      division   2.4151  770
  #      division   2.4626  974
  #      division   3.1649 1202
  #      outer_grid  974
        outer_grid  302
  ################################################################################
  #
  #  Definition of "minimal" basis
  #
  ################################################################################
  #     valence basis states
      valence      5  s   2.
      valence      4  p   6.
      valence      4  d   2.
  #     ion occupancy
      ion_occ      5  s   1.
      ion_occ      4  p   6.
      ion_occ      4  d   1.
  ################################################################################
  #
  #  Suggested additional basis functions. For production calculations,
  #  uncomment them one after another (the most important basis functions are
  #  listed first).
  #
  #  Constructed for dimers: 1.9, 2.25, 3.00, 4.00 Ang
  #
  ################################################################################
  #  "First tier" - improvements: -605.96 meV to -18.06 meV
       hydro 4 f 7.2
       ionic 4 d auto
       ionic 5 p auto
  #     hydro 5 g 10.4
       ionic 5 s auto
  #  "Second tier" - improvements: -32.47 meV to -1.41 meV
  #     hydro 4 f 10.4
  #     hydro 6 h 14.8
  #     hydro 4 d 6.2
  #     hydro 4 p 4.4
  #     hydro 4 f 20
  #     hydro 5 s 6
  #  "Third tier" - improvements: -1.99 meV and lower.
  #     hydro 4 f 5.8
  #     hydro 5 g 10.8
  #     hydro 2 p 1
  #     hydro 3 d 8
  #     hydro 6 h 14.4
  #     hydro 1 s 0.9
  #  Further functions (approx -0.40 meV and below possible)
  plus_u 4 d 0
  ################################################################################
  #
  #  FHI-aims code project
  #  VB, Fritz-Haber Institut, 2009
  #
  #  Suggested "light" defaults for O atom (to be pasted into control.in file)
  #  Be sure to double-check any results obtained with these settings for post-processing,
  #  e.g., with the "tight" defaults and larger basis sets.
  #
  ################################################################################
    species        O
  #     global species definitions
      nucleus             8
      mass                15.9994
  #
      l_hartree           4
  #
      cut_pot             3.5  1.5  1.0
      basis_dep_cutoff    1e-4
  #
      radial_base         36 5.0
      radial_multiplier   1
       angular_grids specified
        division   0.2659   50
        division   0.4451  110
        division   0.6052  194
        division   0.7543  302
  #      division   0.8014  434
  #      division   0.8507  590
  #      division   0.8762  770
  #      division   0.9023  974
  #      division   1.2339 1202
  #      outer_grid 974
        outer_grid 302
  ################################################################################
  #
  #  Definition of "minimal" basis
  #
  ################################################################################
  #     valence basis states
      valence      2  s   2.
      valence      2  p   4.
  #     ion occupancy
      ion_occ      2  s   1.
      ion_occ      2  p   3.
  ################################################################################
  #
  #  Suggested additional basis functions. For production calculations,
  #  uncomment them one after another (the most important basis functions are
  #  listed first).
  #
  #  Constructed for dimers: 1.0 A, 1.208 A, 1.5 A, 2.0 A, 3.0 A
  #
  ################################################################################
  #  "First tier" - improvements: -699.05 meV to -159.38 meV
       hydro 2 p 1.8
       hydro 3 d 7.6
       hydro 3 s 6.4
  #  "Second tier" - improvements: -49.91 meV to -5.39 meV
  #     hydro 4 f 11.6
  #     hydro 3 p 6.2
  #     hydro 3 d 5.6
  #     hydro 5 g 17.6
  #     hydro 1 s 0.75
  #  "Third tier" - improvements: -2.83 meV to -0.50 meV
  #     ionic 2 p auto
  #     hydro 4 f 10.8
  #     hydro 4 d 4.7
  #     hydro 2 s 6.8
  #  "Fourth tier" - improvements: -0.40 meV to -0.12 meV
  #     hydro 3 p 5
  #     hydro 3 s 3.3
  #     hydro 5 g 15.6
  #     hydro 4 f 17.6
  #     hydro 4 d 14
  # Further basis functions - -0.08 meV and below
  #     hydro 3 s 2.1
  #     hydro 4 d 11.6
  #     hydro 3 p 16
  #     hydro 2 s 17.2
  plus_u 2 p 0
  
  -----------------------------------------------------------------------
  Completed first pass over input file control.in .
  -----------------------------------------------------------------------
  
  
  -----------------------------------------------------------------------
  Parsing geometry.in (first pass over file, find array dimensions only).
  The contents of geometry.in will be repeated verbatim below
  unless switched off by setting 'verbatim_writeout .false.' .
  in the first line of geometry.in .
  -----------------------------------------------------------------------
  
  #=======================================================
  # FHI-aims file: ./geometry.in
  # Created using the Atomic Simulation Environment (ASE)
  # Wed May 22 10:46:19 2024
  #=======================================================
  lattice_vector 5.0049999999999999 0.0000000000000000 0.0000000000000000
  lattice_vector 0.0000000000000000 5.2350000000000003 0.0000000000000000
  lattice_vector 0.0000000000000000 0.0000000000000000 5.0510000000000002
  atom_frac 0.2782250372439909 0.4980267767412294 0.7357070884853555 Zr
  atom_frac 0.7218555638979426 0.5018265859309748 0.2643449355128115 Zr
  atom_frac 0.2781090402504353 0.0018165293407436 0.2356765864138872 Zr
  atom_frac 0.7217823720499050 0.9980251572139205 0.7643072294050618 Zr
  atom_frac 0.1011926476542125 0.1580703088914147 0.5978070534202441 O
  atom_frac 0.8542902177463516 1.0182573432090742 0.2013349870903390 O
  atom_frac 0.1456161987494494 0.5184380094975932 0.2986528718346341 O
  atom_frac 0.8988078756145796 0.6580615212604124 0.9021024583530998 O
  atom_frac 0.8986612713857054 0.8419963446359661 0.4019087333075761 O
  atom_frac 0.1454535785143805 -0.0181900887902855 0.7984376937791468 O
  atom_frac 0.8547157345229590 0.4817484095983032 0.7014925682744648 O
  atom_frac 0.1012645494166328 0.3419978981477287 0.0982281930458976 O
  atom_frac 0.4734639401664170 0.7392825946602931 0.0175733196155645 O
  atom_frac 0.5264581902355845 0.2392614279089341 0.4824335453291197 O
  atom_frac 0.5265429354009975 0.2607370929670270 -0.0176338781270511 O
  atom_frac 0.4735608471504448 0.7606440887866864 0.5176266142598621 O
  
  -----------------------------------------------------------------------
  Completed first pass over input file geometry.in .
  -----------------------------------------------------------------------
  

  Basic array size parameters:
  | Number of species                 :        2
  | Number of atoms                   :       16
  | Number of lattice vectors         :        3
  | Max. basis fn. angular momentum   :        3
  | Max. atomic/ionic basis occupied n:        5
  | Max. number of basis fn. types    :        3
  | Max. radial fns per species/type  :       10
  | Max. logarithmic grid size        :     1432
  | Max. radial integration grid size :       58
  | Max. angular integration grid size:      302
  | Max. angular grid division number :        8
  | Radial grid for Hartree potential :     1432
  | Number of spin channels           :        1
  | Max. number of (n,l) shells per species with '+U' treatment:        1

------------------------------------------------------------
          Reading file control.in.
------------------------------------------------------------
  Spin treatment: No spin polarisation.
  Scalar relativistic treatment of kinetic energy: on-site free-atom approximation to ZORA.
  Forces will be computed.
  XC: Using hybrid-PBE0 functionals.
  Found k-point grid:         5         4         5
  Occupation type: Gaussian broadening, width =   0.100000E+00 eV.
  Fixing petukhov mixing factor to   1.000000000000
  Reading DFT+U occupation matrix, from file
  Convergence accuracy of total energy:  0.1000E-05
  Convergence accuracy of sum of eigenvalues:  0.1000E-02
  Convergence accuracy of self-consistent charge density:  0.1000E-05
  Convergence accuracy of forces:  0.1000E-03
 
  Reading configuration options for species Zr                  .
  | Found nuclear charge :  40.0000
  | Found atomic mass :    91.2240000000000      amu
  | Found l_max for Hartree potential  :   4
  | Found cutoff potl. onset [A], width [A], scale factor :    3.50000    1.50000    1.00000
  | Threshold for basis-dependent cutoff potential is   0.100000E-03
  | Found data for basic radial integration grid :    58 points, outermost radius =    5.000 A
  | Found multiplier for basic radial grid :   1
  | Found angular grid specification: user-specified.
  | Specified grid contains     5 separate shells.
  | Check grid settings after all constraints further below.
  | Found free-atom valence shell :  5 s   2.000
  | Found free-atom valence shell :  4 p   6.000
  | Found free-atom valence shell :  4 d   2.000
  | Found free-ion valence shell :  5 s   1.000
  | Found free-ion valence shell :  4 p   6.000
  | Found free-ion valence shell :  4 d   1.000
  | Found hydrogenic basis function :  4 f   7.200
  | Found ionic basis function :  4 d , default cutoff radius.
  | Found ionic basis function :  5 p , default cutoff radius.
  | Found ionic basis function :  5 s , default cutoff radius.
  | Found request for '+U' treatment for  4 d shell, U =     0.000000 eV.
  Species Zr                  : Missing cutoff potential type.
  Defaulting to exp(1/x)/(1-x)^2 type cutoff potential.
  Species Zr: No 'logarithmic' tag. Using default grid for free atom:
  | Default logarithmic grid data [bohr] : 0.1000E-03 0.1000E+03 0.1012E+01
  | Will include ionic basis functions of  2.0-fold positive Zr                   ion.
  Species Zr: On-site basis accuracy parameter (for Gram-Schmidt orthonormalisation) not specified.
  Using default value basis_acc =  0.1000000E-03.
  Species Zr                  : Using default innermost maximum threshold i_radial=  2 for radial functions.
  Species Zr                  : Default cutoff onset for free atom density etc. : 0.35000000E+01 AA.
  Species Zr                  : Basic radial grid will be enhanced according to radial_multiplier =   1, to contain    58 grid points.
 
  Reading configuration options for species O                   .
  | Found nuclear charge :   8.0000
  | Found atomic mass :    15.9994000000000      amu
  | Found l_max for Hartree potential  :   4
  | Found cutoff potl. onset [A], width [A], scale factor :    3.50000    1.50000    1.00000
  | Threshold for basis-dependent cutoff potential is   0.100000E-03
  | Found data for basic radial integration grid :    36 points, outermost radius =    5.000 A
  | Found multiplier for basic radial grid :   1
  | Found angular grid specification: user-specified.
  | Specified grid contains     5 separate shells.
  | Check grid settings after all constraints further below.
  | Found free-atom valence shell :  2 s   2.000
  | Found free-atom valence shell :  2 p   4.000
  | Found free-ion valence shell :  2 s   1.000
  | Found free-ion valence shell :  2 p   3.000
  | Found hydrogenic basis function :  2 p   1.800
  | Found hydrogenic basis function :  3 d   7.600
  | Found hydrogenic basis function :  3 s   6.400
  | Found request for '+U' treatment for  2 p shell, U =     0.000000 eV.
  Species O                   : Missing cutoff potential type.
  Defaulting to exp(1/x)/(1-x)^2 type cutoff potential.
  Species O : No 'logarithmic' tag. Using default grid for free atom:
  | Default logarithmic grid data [bohr] : 0.1000E-03 0.1000E+03 0.1012E+01
  Species O : On-site basis accuracy parameter (for Gram-Schmidt orthonormalisation) not specified.
  Using default value basis_acc =  0.1000000E-03.
  Species O                   : Using default innermost maximum threshold i_radial=  2 for radial functions.
  Species O                   : Default cutoff onset for free atom density etc. : 0.35000000E+01 AA.
  Species O                   : Basic radial grid will be enhanced according to radial_multiplier =   1, to contain    36 grid points.
 
  Finished reading input file 'control.in'.
 
------------------------------------------------------------


------------------------------------------------------------
          Reading geometry description geometry.in.
------------------------------------------------------------
  | The smallest distance between any two atoms is         1.38820376 AA.
  | The first atom of this pair is atom number                      6 .
  | The second atom of this pair is atom number                     9 .
  | Wigner-Seitz cell of the first atom image           0     0     0 .
  | (The Wigner-Seitz cell of the second atom is 0 0 0  by definition.)

  Symmetry information by spglib:
  | Precision set to  0.1E-04
  | Number of Operations  : 1
  | Space group           : 1
  | International         : P1 1     x
  | Schoenflies           : C1^1
  Input structure read successfully.
  The structure contains       16 atoms,  and a total of        256.000 electrons.

  Input geometry:
  | Unit cell:
  |        5.00500000        0.00000000        0.00000000
  |        0.00000000        5.23500000        0.00000000
  |        0.00000000        0.00000000        5.05100000
  | Atomic structure:
  |       Atom                x [A]            y [A]            z [A]
  |    1: Species Zr            1.39251631        2.60717018        3.71605650
  |    2: Species Zr            3.61288710        2.62706218        1.33520627
  |    3: Species Zr            1.39193575        0.00950953        1.19040244
  |    4: Species Zr            3.61252077        5.22466170        3.86051582
  |    5: Species O             0.50646920        0.82749807        3.01952343
  |    6: Species O             4.27572254        5.33057719        1.01694302
  |    7: Species O             0.72880907        2.71402298        1.50849566
  |    8: Species O             4.49853342        3.44495206        4.55651952
  |    9: Species O             4.49779966        4.40785086        2.03004101
  |   10: Species O             0.72799516       -0.09522511        4.03290879
  |   11: Species O             4.27785225        2.52195292        3.54323896
  |   12: Species O             0.50682907        1.79035900        0.49615060
  |   13: Species O             2.36968702        3.87014438        0.08876284
  |   14: Species O             2.63492324        1.25253358        2.43677184
  |   15: Species O             2.63534739        1.36495868       -0.08906872
  |   16: Species O             2.37017204        3.98197180        2.61453203

  Lattice parameters for 3D lattice (in Angstroms) :     5.005000    5.235000    5.051000
  Angle(s) between unit vectors (in degrees)       :    90.000000   90.000000   90.000000


  Quantities derived from the lattice vectors (in Angstrom^-1):
  | Reciprocal lattice vector 1:  1.255382  0.000000  0.000000
  | Reciprocal lattice vector 2:  0.000000  1.200226  0.000000
  | Reciprocal lattice vector 3:  0.000000  0.000000  1.243949
  | Unit cell volume                               :   0.132342E+03  Angstrom^3

  Fractional coordinates:
                         L1                L2                L3
       atom_frac         0.27822504        0.49802678        0.73570709  Zr
       atom_frac         0.72185556        0.50182659        0.26434494  Zr
       atom_frac         0.27810904        0.00181653        0.23567659  Zr
       atom_frac         0.72178237        0.99802516        0.76430723  Zr
       atom_frac         0.10119265        0.15807031        0.59780705  O
       atom_frac         0.85429022        1.01825734        0.20133499  O
       atom_frac         0.14561620        0.51843801        0.29865287  O
       atom_frac         0.89880788        0.65806152        0.90210246  O
       atom_frac         0.89866127        0.84199634        0.40190873  O
       atom_frac         0.14545358       -0.01819009        0.79843769  O
       atom_frac         0.85471573        0.48174841        0.70149257  O
       atom_frac         0.10126455        0.34199790        0.09822819  O
       atom_frac         0.47346394        0.73928259        0.01757332  O
       atom_frac         0.52645819        0.23926143        0.48243355  O
       atom_frac         0.52654294        0.26073709       -0.01763388  O
       atom_frac         0.47356085        0.76064409        0.51762661  O

 
  Finished reading input file 'geometry.in'.
 

 
  Consistency checks for stacksize environment parameter are next.
 
  | Maximum stacksize for task 0: unlimited
  | Maximum stacksize for task 1: unlimited
  | Maximum stacksize for task 2: unlimited
  | Maximum stacksize for task 3: unlimited
  | Maximum stacksize for task 4: unlimited
  | Maximum stacksize for task 5: unlimited
  | Maximum stacksize for task 6: unlimited
  | Maximum stacksize for task 7: unlimited
  | Maximum stacksize for task 8: unlimited
  | Maximum stacksize for task 9: unlimited
  | Maximum stacksize for task 10: unlimited
  | Maximum stacksize for task 11: unlimited
  | Maximum stacksize for task 12: unlimited
  | Maximum stacksize for task 13: unlimited
  | Maximum stacksize for task 14: unlimited
  | Maximum stacksize for task 15: unlimited
  | Maximum stacksize for task 16: unlimited
  | Maximum stacksize for task 17: unlimited
  | Maximum stacksize for task 18: unlimited
  | Maximum stacksize for task 19: unlimited
  | Maximum stacksize for task 20: unlimited
  | Maximum stacksize for task 21: unlimited
  | Maximum stacksize for task 22: unlimited
  | Maximum stacksize for task 23: unlimited
  | Maximum stacksize for task 24: unlimited
  | Maximum stacksize for task 25: unlimited
  | Maximum stacksize for task 26: unlimited
  | Maximum stacksize for task 27: unlimited
  | Maximum stacksize for task 28: unlimited
  | Maximum stacksize for task 29: unlimited
  | Maximum stacksize for task 30: unlimited
  | Maximum stacksize for task 31: unlimited
  | Maximum stacksize for task 32: unlimited
  | Maximum stacksize for task 33: unlimited
  | Maximum stacksize for task 34: unlimited
  | Maximum stacksize for task 35: unlimited
  | Maximum stacksize for task 36: unlimited
  | Maximum stacksize for task 37: unlimited
  | Maximum stacksize for task 38: unlimited
  | Maximum stacksize for task 39: unlimited
  | Maximum stacksize for task 40: unlimited
  | Maximum stacksize for task 41: unlimited
  | Maximum stacksize for task 42: unlimited
  | Maximum stacksize for task 43: unlimited
  | Maximum stacksize for task 44: unlimited
  | Maximum stacksize for task 45: unlimited
  | Maximum stacksize for task 46: unlimited
  | Maximum stacksize for task 47: unlimited
  | Maximum stacksize for task 48: unlimited
  | Maximum stacksize for task 49: unlimited
  | Maximum stacksize for task 50: unlimited
  | Maximum stacksize for task 51: unlimited
  | Maximum stacksize for task 52: unlimited
  | Maximum stacksize for task 53: unlimited
  | Maximum stacksize for task 54: unlimited
  | Maximum stacksize for task 55: unlimited
  | Maximum stacksize for task 56: unlimited
  | Maximum stacksize for task 57: unlimited
  | Maximum stacksize for task 58: unlimited
  | Maximum stacksize for task 59: unlimited
  | Maximum stacksize for task 60: unlimited
  | Maximum stacksize for task 61: unlimited
  | Maximum stacksize for task 62: unlimited
  | Maximum stacksize for task 63: unlimited
  | Maximum stacksize for task 64: unlimited
  | Maximum stacksize for task 65: unlimited
  | Maximum stacksize for task 66: unlimited
  | Maximum stacksize for task 67: unlimited
  | Maximum stacksize for task 68: unlimited
  | Maximum stacksize for task 69: unlimited
  | Maximum stacksize for task 70: unlimited
  | Maximum stacksize for task 71: unlimited
  | Maximum stacksize for task 72: unlimited
  | Maximum stacksize for task 73: unlimited
  | Maximum stacksize for task 74: unlimited
  | Maximum stacksize for task 75: unlimited
  | Maximum stacksize for task 76: unlimited
  | Maximum stacksize for task 77: unlimited
  | Maximum stacksize for task 78: unlimited
  | Maximum stacksize for task 79: unlimited
  | Maximum stacksize for task 80: unlimited
  | Maximum stacksize for task 81: unlimited
  | Maximum stacksize for task 82: unlimited
  | Maximum stacksize for task 83: unlimited
  | Maximum stacksize for task 84: unlimited
  | Maximum stacksize for task 85: unlimited
  | Maximum stacksize for task 86: unlimited
  | Maximum stacksize for task 87: unlimited
  | Maximum stacksize for task 88: unlimited
  | Maximum stacksize for task 89: unlimited
  | Maximum stacksize for task 90: unlimited
  | Maximum stacksize for task 91: unlimited
  | Maximum stacksize for task 92: unlimited
  | Maximum stacksize for task 93: unlimited
  | Maximum stacksize for task 94: unlimited
  | Maximum stacksize for task 95: unlimited
  | Maximum stacksize for task 96: unlimited
  | Maximum stacksize for task 97: unlimited
  | Maximum stacksize for task 98: unlimited
  | Maximum stacksize for task 99: unlimited
  | Maximum stacksize for task 100: unlimited
  | Maximum stacksize for task 101: unlimited
  | Maximum stacksize for task 102: unlimited
  | Maximum stacksize for task 103: unlimited
  | Maximum stacksize for task 104: unlimited
  | Maximum stacksize for task 105: unlimited
  | Maximum stacksize for task 106: unlimited
  | Maximum stacksize for task 107: unlimited
  | Maximum stacksize for task 108: unlimited
  | Maximum stacksize for task 109: unlimited
  | Maximum stacksize for task 110: unlimited
  | Maximum stacksize for task 111: unlimited
  | Maximum stacksize for task 112: unlimited
  | Maximum stacksize for task 113: unlimited
  | Maximum stacksize for task 114: unlimited
  | Maximum stacksize for task 115: unlimited
  | Maximum stacksize for task 116: unlimited
  | Maximum stacksize for task 117: unlimited
  | Maximum stacksize for task 118: unlimited
  | Maximum stacksize for task 119: unlimited
  | Maximum stacksize for task 120: unlimited
  | Maximum stacksize for task 121: unlimited
  | Maximum stacksize for task 122: unlimited
  | Maximum stacksize for task 123: unlimited
  | Maximum stacksize for task 124: unlimited
  | Maximum stacksize for task 125: unlimited
  | Maximum stacksize for task 126: unlimited
  | Maximum stacksize for task 127: unlimited
  | Maximum stacksize for task 128: unlimited
  | Maximum stacksize for task 129: unlimited
  | Maximum stacksize for task 130: unlimited
  | Maximum stacksize for task 131: unlimited
  | Maximum stacksize for task 132: unlimited
  | Maximum stacksize for task 133: unlimited
  | Maximum stacksize for task 134: unlimited
  | Maximum stacksize for task 135: unlimited
  | Maximum stacksize for task 136: unlimited
  | Maximum stacksize for task 137: unlimited
  | Maximum stacksize for task 138: unlimited
  | Maximum stacksize for task 139: unlimited
  | Maximum stacksize for task 140: unlimited
  | Maximum stacksize for task 141: unlimited
  | Maximum stacksize for task 142: unlimited
  | Maximum stacksize for task 143: unlimited
  | Maximum stacksize for task 144: unlimited
  | Maximum stacksize for task 145: unlimited
  | Maximum stacksize for task 146: unlimited
  | Maximum stacksize for task 147: unlimited
  | Maximum stacksize for task 148: unlimited
  | Maximum stacksize for task 149: unlimited
  | Maximum stacksize for task 150: unlimited
  | Maximum stacksize for task 151: unlimited
  | Maximum stacksize for task 152: unlimited
  | Maximum stacksize for task 153: unlimited
  | Maximum stacksize for task 154: unlimited
  | Maximum stacksize for task 155: unlimited
  | Maximum stacksize for task 156: unlimited
  | Maximum stacksize for task 157: unlimited
  | Maximum stacksize for task 158: unlimited
  | Maximum stacksize for task 159: unlimited
  | Maximum stacksize for task 160: unlimited
  | Maximum stacksize for task 161: unlimited
  | Maximum stacksize for task 162: unlimited
  | Maximum stacksize for task 163: unlimited
  | Maximum stacksize for task 164: unlimited
  | Maximum stacksize for task 165: unlimited
  | Maximum stacksize for task 166: unlimited
  | Maximum stacksize for task 167: unlimited
  | Maximum stacksize for task 168: unlimited
  | Maximum stacksize for task 169: unlimited
  | Maximum stacksize for task 170: unlimited
  | Maximum stacksize for task 171: unlimited
  | Maximum stacksize for task 172: unlimited
  | Maximum stacksize for task 173: unlimited
  | Maximum stacksize for task 174: unlimited
  | Maximum stacksize for task 175: unlimited
  | Maximum stacksize for task 176: unlimited
  | Maximum stacksize for task 177: unlimited
  | Maximum stacksize for task 178: unlimited
  | Maximum stacksize for task 179: unlimited
  | Maximum stacksize for task 180: unlimited
  | Maximum stacksize for task 181: unlimited
  | Maximum stacksize for task 182: unlimited
  | Maximum stacksize for task 183: unlimited
  | Maximum stacksize for task 184: unlimited
  | Maximum stacksize for task 185: unlimited
  | Maximum stacksize for task 186: unlimited
  | Maximum stacksize for task 187: unlimited
  | Maximum stacksize for task 188: unlimited
  | Maximum stacksize for task 189: unlimited
  | Maximum stacksize for task 190: unlimited
  | Maximum stacksize for task 191: unlimited
  | Maximum stacksize for task 192: unlimited
  | Maximum stacksize for task 193: unlimited
  | Maximum stacksize for task 194: unlimited
  | Maximum stacksize for task 195: unlimited
  | Maximum stacksize for task 196: unlimited
  | Maximum stacksize for task 197: unlimited
  | Maximum stacksize for task 198: unlimited
  | Maximum stacksize for task 199: unlimited
  | Current stacksize for task 0: unlimited
  | Current stacksize for task 1: unlimited
  | Current stacksize for task 2: unlimited
  | Current stacksize for task 3: unlimited
  | Current stacksize for task 4: unlimited
  | Current stacksize for task 5: unlimited
  | Current stacksize for task 6: unlimited
  | Current stacksize for task 7: unlimited
  | Current stacksize for task 8: unlimited
  | Current stacksize for task 9: unlimited
  | Current stacksize for task 10: unlimited
  | Current stacksize for task 11: unlimited
  | Current stacksize for task 12: unlimited
  | Current stacksize for task 13: unlimited
  | Current stacksize for task 14: unlimited
  | Current stacksize for task 15: unlimited
  | Current stacksize for task 16: unlimited
  | Current stacksize for task 17: unlimited
  | Current stacksize for task 18: unlimited
  | Current stacksize for task 19: unlimited
  | Current stacksize for task 20: unlimited
  | Current stacksize for task 21: unlimited
  | Current stacksize for task 22: unlimited
  | Current stacksize for task 23: unlimited
  | Current stacksize for task 24: unlimited
  | Current stacksize for task 25: unlimited
  | Current stacksize for task 26: unlimited
  | Current stacksize for task 27: unlimited
  | Current stacksize for task 28: unlimited
  | Current stacksize for task 29: unlimited
  | Current stacksize for task 30: unlimited
  | Current stacksize for task 31: unlimited
  | Current stacksize for task 32: unlimited
  | Current stacksize for task 33: unlimited
  | Current stacksize for task 34: unlimited
  | Current stacksize for task 35: unlimited
  | Current stacksize for task 36: unlimited
  | Current stacksize for task 37: unlimited
  | Current stacksize for task 38: unlimited
  | Current stacksize for task 39: unlimited
  | Current stacksize for task 40: unlimited
  | Current stacksize for task 41: unlimited
  | Current stacksize for task 42: unlimited
  | Current stacksize for task 43: unlimited
  | Current stacksize for task 44: unlimited
  | Current stacksize for task 45: unlimited
  | Current stacksize for task 46: unlimited
  | Current stacksize for task 47: unlimited
  | Current stacksize for task 48: unlimited
  | Current stacksize for task 49: unlimited
  | Current stacksize for task 50: unlimited
  | Current stacksize for task 51: unlimited
  | Current stacksize for task 52: unlimited
  | Current stacksize for task 53: unlimited
  | Current stacksize for task 54: unlimited
  | Current stacksize for task 55: unlimited
  | Current stacksize for task 56: unlimited
  | Current stacksize for task 57: unlimited
  | Current stacksize for task 58: unlimited
  | Current stacksize for task 59: unlimited
  | Current stacksize for task 60: unlimited
  | Current stacksize for task 61: unlimited
  | Current stacksize for task 62: unlimited
  | Current stacksize for task 63: unlimited
  | Current stacksize for task 64: unlimited
  | Current stacksize for task 65: unlimited
  | Current stacksize for task 66: unlimited
  | Current stacksize for task 67: unlimited
  | Current stacksize for task 68: unlimited
  | Current stacksize for task 69: unlimited
  | Current stacksize for task 70: unlimited
  | Current stacksize for task 71: unlimited
  | Current stacksize for task 72: unlimited
  | Current stacksize for task 73: unlimited
  | Current stacksize for task 74: unlimited
  | Current stacksize for task 75: unlimited
  | Current stacksize for task 76: unlimited
  | Current stacksize for task 77: unlimited
  | Current stacksize for task 78: unlimited
  | Current stacksize for task 79: unlimited
  | Current stacksize for task 80: unlimited
  | Current stacksize for task 81: unlimited
  | Current stacksize for task 82: unlimited
  | Current stacksize for task 83: unlimited
  | Current stacksize for task 84: unlimited
  | Current stacksize for task 85: unlimited
  | Current stacksize for task 86: unlimited
  | Current stacksize for task 87: unlimited
  | Current stacksize for task 88: unlimited
  | Current stacksize for task 89: unlimited
  | Current stacksize for task 90: unlimited
  | Current stacksize for task 91: unlimited
  | Current stacksize for task 92: unlimited
  | Current stacksize for task 93: unlimited
  | Current stacksize for task 94: unlimited
  | Current stacksize for task 95: unlimited
  | Current stacksize for task 96: unlimited
  | Current stacksize for task 97: unlimited
  | Current stacksize for task 98: unlimited
  | Current stacksize for task 99: unlimited
  | Current stacksize for task 100: unlimited
  | Current stacksize for task 101: unlimited
  | Current stacksize for task 102: unlimited
  | Current stacksize for task 103: unlimited
  | Current stacksize for task 104: unlimited
  | Current stacksize for task 105: unlimited
  | Current stacksize for task 106: unlimited
  | Current stacksize for task 107: unlimited
  | Current stacksize for task 108: unlimited
  | Current stacksize for task 109: unlimited
  | Current stacksize for task 110: unlimited
  | Current stacksize for task 111: unlimited
  | Current stacksize for task 112: unlimited
  | Current stacksize for task 113: unlimited
  | Current stacksize for task 114: unlimited
  | Current stacksize for task 115: unlimited
  | Current stacksize for task 116: unlimited
  | Current stacksize for task 117: unlimited
  | Current stacksize for task 118: unlimited
  | Current stacksize for task 119: unlimited
  | Current stacksize for task 120: unlimited
  | Current stacksize for task 121: unlimited
  | Current stacksize for task 122: unlimited
  | Current stacksize for task 123: unlimited
  | Current stacksize for task 124: unlimited
  | Current stacksize for task 125: unlimited
  | Current stacksize for task 126: unlimited
  | Current stacksize for task 127: unlimited
  | Current stacksize for task 128: unlimited
  | Current stacksize for task 129: unlimited
  | Current stacksize for task 130: unlimited
  | Current stacksize for task 131: unlimited
  | Current stacksize for task 132: unlimited
  | Current stacksize for task 133: unlimited
  | Current stacksize for task 134: unlimited
  | Current stacksize for task 135: unlimited
  | Current stacksize for task 136: unlimited
  | Current stacksize for task 137: unlimited
  | Current stacksize for task 138: unlimited
  | Current stacksize for task 139: unlimited
  | Current stacksize for task 140: unlimited
  | Current stacksize for task 141: unlimited
  | Current stacksize for task 142: unlimited
  | Current stacksize for task 143: unlimited
  | Current stacksize for task 144: unlimited
  | Current stacksize for task 145: unlimited
  | Current stacksize for task 146: unlimited
  | Current stacksize for task 147: unlimited
  | Current stacksize for task 148: unlimited
  | Current stacksize for task 149: unlimited
  | Current stacksize for task 150: unlimited
  | Current stacksize for task 151: unlimited
  | Current stacksize for task 152: unlimited
  | Current stacksize for task 153: unlimited
  | Current stacksize for task 154: unlimited
  | Current stacksize for task 155: unlimited
  | Current stacksize for task 156: unlimited
  | Current stacksize for task 157: unlimited
  | Current stacksize for task 158: unlimited
  | Current stacksize for task 159: unlimited
  | Current stacksize for task 160: unlimited
  | Current stacksize for task 161: unlimited
  | Current stacksize for task 162: unlimited
  | Current stacksize for task 163: unlimited
  | Current stacksize for task 164: unlimited
  | Current stacksize for task 165: unlimited
  | Current stacksize for task 166: unlimited
  | Current stacksize for task 167: unlimited
  | Current stacksize for task 168: unlimited
  | Current stacksize for task 169: unlimited
  | Current stacksize for task 170: unlimited
  | Current stacksize for task 171: unlimited
  | Current stacksize for task 172: unlimited
  | Current stacksize for task 173: unlimited
  | Current stacksize for task 174: unlimited
  | Current stacksize for task 175: unlimited
  | Current stacksize for task 176: unlimited
  | Current stacksize for task 177: unlimited
  | Current stacksize for task 178: unlimited
  | Current stacksize for task 179: unlimited
  | Current stacksize for task 180: unlimited
  | Current stacksize for task 181: unlimited
  | Current stacksize for task 182: unlimited
  | Current stacksize for task 183: unlimited
  | Current stacksize for task 184: unlimited
  | Current stacksize for task 185: unlimited
  | Current stacksize for task 186: unlimited
  | Current stacksize for task 187: unlimited
  | Current stacksize for task 188: unlimited
  | Current stacksize for task 189: unlimited
  | Current stacksize for task 190: unlimited
  | Current stacksize for task 191: unlimited
  | Current stacksize for task 192: unlimited
  | Current stacksize for task 193: unlimited
  | Current stacksize for task 194: unlimited
  | Current stacksize for task 195: unlimited
  | Current stacksize for task 196: unlimited
  | Current stacksize for task 197: unlimited
  | Current stacksize for task 198: unlimited
  | Current stacksize for task 199: unlimited
 
  Consistency checks for the contents of control.in are next.
 
  MPI_IN_PLACE appears to work with this MPI implementation.
  | Keeping use_mpi_in_place .true. (see manual).
  Explicit treatment of the Coulomb operator is needed, but the RI method is not specified.
  Coulomb operator: Defaulting to 'LVL fast' resolution of identity - RI_type = LVL_fast
  Species Zr: Using default value for prodbas_acc =   1.000000E-04.
  Species Zr: Using default value max_l_prodbas =    20.
  Species O: Using default value for prodbas_acc =   1.000000E-04.
  Species O: Using default value max_l_prodbas =    20.
  Target number of points in a grid batch is not set. Defaulting to  100
  Method for grid partitioning is not set. Defaulting to parallel hash+maxmin partitioning.
  Batch size limit is not set. Defaulting to    200
  By default, will store active basis functions for each batch.
  If in need of memory, prune_basis_once .false. can be used to disable this option.
  communication_type for Hartree potential was not specified.
  Defaulting to calc_hartree .
  Defaulting to Pulay charge density mixer.
  Pulay mixer: Number of relevant iterations not set.
  Defaulting to    8 iterations.
  Pulay mixer: Number of initial linear mixing iterations not set.
  Defaulting to    0 iterations.
  Work space size for distributed Hartree potential not set.
  Defaulting to   0.200000E+03 MB.
  Mixing parameter for charge density mixing has not been set.
  Using default: charge_mix_param =     0.0500.
  The mixing parameter will be adjusted in iteration number     2 of the first full s.c.f. cycle only.
  Algorithm-dependent basis array size parameters:
  | n_max_pulay                         :        8
  Maximum number of self-consistency iterations not provided.
  Presetting  1000 iterations.
  Presetting      1001 iterations before the initial mixing cycle
  is restarted anyway using the sc_init_iter criterion / keyword.
  Presetting a factor      1.000 between actual scf density residual
  and density convergence criterion sc_accuracy_rho below which sc_init_iter
  takes no effect.
  Geometry relaxation not requested: no relaxation will be performed.
  Forces evaluation will include force correction term due to incomplete self-consistency (default).
  Handling of forces: Unphysical translation and rotation will be removed from forces.
  No accuracy limit for integral partition fn. given. Defaulting to  0.1000E-14.
  No threshold value for u(r) in integrations given. Defaulting to  0.1000E-05.
  No accuracy for occupation numbers given. Defaulting to  0.1000E-12.
  No threshold value for occupation numbers given. Defaulting to  0.0000E+00.
  No accuracy for fermi level given. Defaulting to  0.1000E-19.
  Maximum # of iterations to find E_F not set. Defaulting to  200.
  Preferred method for the eigenvalue solver ('KS_method') not specified in 'control.in'.
  Calling BLACS routine to test compilation state
  Since ScaLAPACK support is enabled, defaulting to ELPA (via ELSI).
  Will not use alltoall communication since running on < 1024 CPUs.
  Threshold for basis singularities not set.
  Default threshold for basis singularities:  0.1000E-04
  partition_type (choice of integration weights) for integrals was not specified.
  | Using a version of the partition function of Stratmann and coworkers ('stratmann_sparse').
  | At each grid point, the set of atoms used to build the partition table is smoothly restricted to
  | only those atoms whose free-atom density would be non-zero at that grid point.
  Partitioning for Hartree potential was not defined. Using partition_type for integrals.
  | Adjusted default value of keyword multip_moments_threshold to:       0.10000000E-11
  | This value may affect high angular momentum components of the Hartree potential in periodic systems.
  Threshold for auxiliary basis singularities not set.
  Default threshold for auxiliary basis singularities:  0.1000E-04
  No q(lm)/r^(l+1) cutoff set for long-range Hartree potential.
  | Using default value of  0.100000E-09 .
  | Verify using the multipole_threshold keyword.
  Defaulting to new monopole extrapolation.
  Density update method: automatic selection selected.
  Using density matrix based charge density update.
 * Warning: DFT+U requires using density matrix based charge density update.
  Using density matrix based charge density update.
  Using packed matrix style: index .
 * NOTE: You are attempting to run a periodic structure with an exchange treatment
 * which requires a two-electron Coulomb operator (Hartree-Fock or a hybrid functional).
 * The present implementation is reliable to our knowledge, but some things
 * (like band structure output, or perhaps the auxilary basis set for small
 * orbital basis sets - see the "for_aux" keyword) require extra care.
 * Please let us know if you encounter any trouble.
  Coulomb operator: Defaulting to screening threshold for four-center integrals:   0.100000E-06
  Coulomb operator: Defaulting to screening threshold for Coulomb matrix:   0.100000E-09
  Fock matrix calculation: Setting the screening threshold for overlap matrix to coul_mat_threshold:   0.100000E-09
  Coulomb operator: Defaulting to 'LVL_fast' resolution of identity - RI_type = LVL_fast 
  No other resolution of identity version is supported for periodic boundary conditions at present.
  Coulomb operator: Defaulting to logarithmic spherical Bessel transform integrals (use_logsbt .true.).
  Defaulting to use time-reversal symmetry for k-point grid.
  Charge integration errors on the 3D integration grid will be compensated
  by explicit normalization and distribution of residual charges.
  Use the "compensate_multipole_errors" flag to change this behaviour.
  LVL not implemented with density matrix yet
  -> switching to transformed overlap
  LVL probably works better with logsbt
  Default to 1D ("use_logsbt") integrations for auxiliary 2-center integrals.
  Default onset of logarithmic r-grid for SBT is -38.000000000000
  Default onset of logarithmic k-grid for SBT is -25.000000000000
  Default range of logarithmic r- and k-grid for SBT is  45.000000000000
  Default number of logarithmic r- and k-grid for SBT is   4096
  Default of use_2d_corr is to use the efficient 2D distribution where possible
 
  Consistency checks for the contents of geometry.in are next.
 

  Range separation radius for Ewald summation (hartree_convergence_parameter):      2.74853427 bohr.
  Number of empty states per atom not set in control.in - providing a guess from actual geometry.
  | Total number of empty states used during s.c.f. cycle:       58
  If you use a very high smearing, use empty_states (per atom!) in control.in to increase this value.

  Structure-dependent array size parameters: 
  | Maximum number of distinct radial functions  :       20
  | Maximum number of basis functions            :      328
  | Number of Kohn-Sham states (occupied + empty):      186
------------------------------------------------------------
  Setting Coulomb cut-width to  1.091868692359 * rcut.
  Setting Coulomb cutting radius rcut to 10.470000000000 A.
  After read_input_data [GB]:    303.53

  Performing system and environment tests:
  *** Environment variable OMP_NUM_THREADS is not set
  *** For performance reasons you might want to set it to 1
  | Checking for ScaLAPACK...
  | Testing pdtran()...
  | All pdtran() tests passed.
  After prepare_system [GB]:    303.53

------------------------------------------------------------
          Preparing all fixed parts of the calculation.
------------------------------------------------------------
  Determining machine precision:
    2.225073858507201E-308
  Setting up grids for atomic and cluster calculations.

  Creating wave function, potential, and density for free atoms.
  Runtime choices for atomic solver:
  | atomic solver xc        : PBE
  | compute density gradient: 1
  | compute kinetic density : F

  Species: Zr

  List of occupied orbitals and eigenvalues:
    n    l              occ      energy [Ha]    energy [eV]
    1    0           2.0000      -668.706582    -18196.4319
    2    0           2.0000       -91.061038     -2477.8969
    3    0           2.0000       -14.857587      -404.2955
    4    0           2.0000        -1.979040       -53.8524
    5    0           2.0000        -0.143402        -3.9022
    2    1           6.0000       -81.178513     -2208.9797
    3    1           6.0000       -11.652124      -317.0704
    4    1           6.0000        -1.169302       -31.8183
    3    2          10.0000        -6.398530      -174.1129
    4    2           2.0000        -0.111946        -3.0462


  Species: O

  List of occupied orbitals and eigenvalues:
    n    l              occ      energy [Ha]    energy [eV]
    1    0           2.0000       -18.926989      -515.0296
    2    0           2.0000        -0.880247       -23.9527
    2    1           4.0000        -0.331514        -9.0210


  Adding cutoff potential to free-atom effective potential.
  Creating fixed part of basis set: Ionic, confined, hydrogenic.
 
  Zr                   ion:

  List of free ionic orbitals and eigenvalues:
    n    l      energy [Ha]    energy [eV]
    1    0      -669.421026    -18215.8729
    2    0       -91.769634     -2497.1788
    3    0       -15.560469      -423.4219
    4    0        -2.663352       -72.4735
    5    0        -0.640863       -17.4388
    2    1       -81.886574     -2228.2470
    3    1       -12.354892      -336.1937
    4    1        -1.844122       -50.1811
    3    2        -7.101714      -193.2475
    4    2        -0.726930       -19.7808


  List of ionic basis orbitals and eigenvalues:
    n    l      energy [Ha]    energy [eV]    outer radius [A]
    4    2        -0.726889       -19.7797       4.486525
    5    1        -0.465952       -12.6792       4.597573
    5    0        -0.640012       -17.4156       4.597573

 
  Zr                   hydrogenic:
 
  List of hydrogenic basis orbitals: 
    n    l      effective z      eigenvalue [eV]  inner max. [A]     outer max. [A]     outer radius [A]   
    4    3         7.200000       -44.0814           1.169212           1.169212           4.541709
 
 
  O                    hydrogenic:
 
  List of hydrogenic basis orbitals: 
    n    l      effective z      eigenvalue [eV]  inner max. [A]     outer max. [A]     outer radius [A]   
    2    1         1.800000       -10.9749           1.164242           1.164242           4.578029
    3    2         7.600000       -87.3180           0.624125           0.624125           3.251020
    3    0         6.400000       -61.9207           0.061167           1.081902           4.001998
 
  Creating atomic-like basis functions for current effective potential.

  Species Zr                  :

  List of atomic basis orbitals and eigenvalues:
    n    l      energy [Ha]    energy [eV]    outer radius [A]
    1    0      -668.706582    -18196.4319       0.259930
    2    0       -91.061038     -2477.8969       0.725827
    3    0       -14.857587      -404.2955       1.771771
    4    0        -1.979040       -53.8524       4.169218
    5    0        -0.143402        -3.9022       4.597573
    2    1       -81.178513     -2208.9797       0.743792
    3    1       -11.652124      -317.0704       1.930067
    4    1        -1.169302       -31.8183       4.378160
    3    2        -6.398530      -174.1129       2.434714
    4    2        -0.111946        -3.0462       4.597573


  Species O                   :

  List of atomic basis orbitals and eigenvalues:
    n    l      energy [Ha]    energy [eV]    outer radius [A]
    1    0       -18.926989      -515.0296       1.415765
    2    0        -0.880247       -23.9527       4.413171
    2    1        -0.331514        -9.0210       4.522403

  Assembling full basis from fixed parts.
 * Warning - Since '+U' treatment was requested,
 * the basis-dependent cutoff is turned off automatically.
  | Species Zr :   atomic orbital   1 s accepted.
  | Species Zr :   atomic orbital   2 s accepted.
  | Species Zr :   atomic orbital   3 s accepted.
  | Species Zr :   atomic orbital   4 s accepted.
  | Species Zr :   atomic orbital   5 s accepted.
  | Species Zr :    ionic orbital   5 s accepted.
  | Species Zr :   atomic orbital   2 p accepted.
  | Species Zr :   atomic orbital   3 p accepted.
  | Species Zr :   atomic orbital   4 p accepted.
  | Species Zr :    ionic orbital   5 p accepted.
  | Species Zr :   atomic orbital   3 d accepted.
  | Species Zr :   atomic orbital   4 d accepted.
  | Species Zr :    ionic orbital   4 d accepted.
  | Species Zr :    hydro orbital   4 f accepted.
 * Warning - Since '+U' treatment was requested,
 * the basis-dependent cutoff is turned off automatically.
  | Species O :   atomic orbital   1 s accepted.
  | Species O :   atomic orbital   2 s accepted.
  | Species O :    hydro orbital   3 s accepted.
  | Species O :   atomic orbital   2 p accepted.
  | Species O :    hydro orbital   2 p accepted.
  | Species O :    hydro orbital   3 d accepted.
 
  Basis size parameters after reduction:
  | Total number of radial functions:       20
  | Total number of basis functions :      328
 
  Per-task memory consumption for arrays in subroutine allocate_ext:
  |           7.341088MB.
  Testing on-site integration grid accuracy.
  |  Species  Function  <phi|h_atom|phi> (log., in eV)  <phi|h_atom|phi> (rad., in eV)
           1        1             -18196.4319289647             -18196.4037056302
           1        2              -2477.8969157874              -2477.8965190963
           1        3               -404.2955207273               -404.2955072396
           1        4                -53.8524207606                -53.8524197465
           1        5                 -3.9325346527                 -3.9640981539 ***
           1        6                  7.4650119531                  7.2487021896 ***
           1        7              -2208.9797384608              -2208.9797360982
           1        8               -317.0704188561               -317.0704172349
           1        9                -31.8183401014                -31.8183399499
           1       10                  0.1214541437                  0.0960014764
           1       11               -174.1128704819               -174.1128700309
           1       12                 -3.0517491564                 -3.0575383079
           1       13                  6.5609496403                  6.4664845346 ***
           1       14                 17.1803315707                 17.1799919815
           2       15               -515.0295626295               -515.0294562738
           2       16                -23.9527496044                -23.9527504259
           2       17                 17.5187107785                 17.5187708358
           2       18                 -9.0211123393                 -9.0212703513
           2       19                  8.3047696391                  8.2854840999
           2       20                 45.8428042125                 45.8427461222
 * Note: Onsite integrals marked "***" above are less accurate than
 * onsite_accuracy_threshold =    0.03000 eV. Usually, this is harmless.
 * However, one integral did have a negative value. This integral could be important.
 * When in doubt, tighten the "radial" and/or "radial_multiplier" flags to check.

  Preparing densities etc. for the partition functions (integrals / Hartree potential).

  Preparations completed.
  max(cpu_time)          :      0.698 s.
  Wall clock time (cpu1) :      0.697 s.
------------------------------------------------------------
  After prepare_scf [GB]:    302.62

  Initializing index lists of integration centers etc. from given atomic structure:
  Mapping all atomic coordinates to central unit cell.

  Initializing the k-points
  Using symmetry for reducing the k-points
  | k-points reduced from:      100 to       51
  | Number of k-points                             :        51
  | Consuming         79 KiB for k_phase_exx.
  The eigenvectors in the calculations are COMPLEX.
  | Number of basis functions in the Hamiltonian integrals :      4764
  | Number of basis functions in a single unit cell        :       328
  | Number of centers in hartree potential         :      1628
  | Number of centers in hartree multipole         :      1200
  | Number of centers in electron density summation:       886
  | Number of centers in basis integrals           :       962
  | Number of centers in integrals                 :       342
  | Number of centers in hamiltonian               :       890
  | Consuming         76 KiB for k_phase.
  | Number of super-cells (origin) [n_cells]                     :         343
  | Number of super-cells (after PM_index) [n_cells]             :          96
  | Number of super-cells in hamiltonian [n_cells_in_hamiltonian]:          96
  | Size of matrix packed + index [n_hamiltonian_matrix_size] :      891759
  After initialize_bc_dependent_lists [GB]:    302.23

------------------------------------------------------------
          Begin self-consistency loop: Initialization.

          Date     :  20240522, Time     :  104623.235
------------------------------------------------------------
  Available memory per node after initialize_hartree_non_periodic_ewald [GB]:    302.23
  | Estimated reciprocal-space cutoff momentum G_max:         3.45264755 bohr^-1 .
  | Reciprocal lattice points for long-range Hartree potential:     626
  Available memory per node after initialize_recip_hartree_potential [GB]:    302.23
  Using simple linear distribution as default method for k-point parallelism.
  * Using 200 tasks for Scalapack Eigenvalue solver.
  Detailed listing of tasks and assigned k-points:
   Task     0 k-point     1 on ccs1002
   Task     1 k-point     1 on ccs1002
   Task     2 k-point     1 on ccs1002
   Task     3 k-point     1 on ccs1002
   Task     4 k-point     2 on ccs1002
   Task     5 k-point     2 on ccs1002
   Task     6 k-point     2 on ccs1002
   Task     7 k-point     2 on ccs1002
   Task     8 k-point     3 on ccs1002
   Task     9 k-point     3 on ccs1002
   Task    10 k-point     3 on ccs1002
   Task    11 k-point     3 on ccs1002
   Task    12 k-point     4 on ccs1002
   Task    13 k-point     4 on ccs1002
   Task    14 k-point     4 on ccs1002
   Task    15 k-point     4 on ccs1002
   Task    16 k-point     5 on ccs1002
   Task    17 k-point     5 on ccs1002
   Task    18 k-point     5 on ccs1002
   Task    19 k-point     5 on ccs1002
   Task    20 k-point     6 on ccs1002
   Task    21 k-point     6 on ccs1002
   Task    22 k-point     6 on ccs1002
   Task    23 k-point     6 on ccs1002
   Task    24 k-point     7 on ccs1002
   Task    25 k-point     7 on ccs1002
   Task    26 k-point     7 on ccs1002
   Task    27 k-point     7 on ccs1002
   Task    28 k-point     8 on ccs1002
   Task    29 k-point     8 on ccs1002
   Task    30 k-point     8 on ccs1002
   Task    31 k-point     8 on ccs1002
   Task    32 k-point     9 on ccs1002
   Task    33 k-point     9 on ccs1002
   Task    34 k-point     9 on ccs1002
   Task    35 k-point     9 on ccs1002
   Task    36 k-point    10 on ccs1002
   Task    37 k-point    10 on ccs1002
   Task    38 k-point    10 on ccs1002
   Task    39 k-point    10 on ccs1002
   Task    40 k-point    11 on ccs1004
   Task    41 k-point    11 on ccs1004
   Task    42 k-point    11 on ccs1004
   Task    43 k-point    11 on ccs1004
   Task    44 k-point    12 on ccs1004
   Task    45 k-point    12 on ccs1004
   Task    46 k-point    12 on ccs1004
   Task    47 k-point    12 on ccs1004
   Task    48 k-point    13 on ccs1004
   Task    49 k-point    13 on ccs1004
   Task    50 k-point    13 on ccs1004
   Task    51 k-point    14 on ccs1004
   Task    52 k-point    14 on ccs1004
   Task    53 k-point    14 on ccs1004
   Task    54 k-point    14 on ccs1004
   Task    55 k-point    15 on ccs1004
   Task    56 k-point    15 on ccs1004
   Task    57 k-point    15 on ccs1004
   Task    58 k-point    15 on ccs1004
   Task    59 k-point    16 on ccs1004
   Task    60 k-point    16 on ccs1004
   Task    61 k-point    16 on ccs1004
   Task    62 k-point    16 on ccs1004
   Task    63 k-point    17 on ccs1004
   Task    64 k-point    17 on ccs1004
   Task    65 k-point    17 on ccs1004
   Task    66 k-point    17 on ccs1004
   Task    67 k-point    18 on ccs1004
   Task    68 k-point    18 on ccs1004
   Task    69 k-point    18 on ccs1004
   Task    70 k-point    18 on ccs1004
   Task    71 k-point    19 on ccs1004
   Task    72 k-point    19 on ccs1004
   Task    73 k-point    19 on ccs1004
   Task    74 k-point    19 on ccs1004
   Task    75 k-point    20 on ccs1004
   Task    76 k-point    20 on ccs1004
   Task    77 k-point    20 on ccs1004
   Task    78 k-point    20 on ccs1004
   Task    79 k-point    21 on ccs1004
   Task    80 k-point    21 on ccs1005
   Task    81 k-point    21 on ccs1005
   Task    82 k-point    21 on ccs1005
   Task    83 k-point    22 on ccs1005
   Task    84 k-point    22 on ccs1005
   Task    85 k-point    22 on ccs1005
   Task    86 k-point    22 on ccs1005
   Task    87 k-point    23 on ccs1005
   Task    88 k-point    23 on ccs1005
   Task    89 k-point    23 on ccs1005
   Task    90 k-point    23 on ccs1005
   Task    91 k-point    24 on ccs1005
   Task    92 k-point    24 on ccs1005
   Task    93 k-point    24 on ccs1005
   Task    94 k-point    24 on ccs1005
   Task    95 k-point    25 on ccs1005
   Task    96 k-point    25 on ccs1005
   Task    97 k-point    25 on ccs1005
   Task    98 k-point    25 on ccs1005
   Task    99 k-point    26 on ccs1005
   Task   100 k-point    26 on ccs1005
   Task   101 k-point    26 on ccs1005
   Task   102 k-point    27 on ccs1005
   Task   103 k-point    27 on ccs1005
   Task   104 k-point    27 on ccs1005
   Task   105 k-point    27 on ccs1005
   Task   106 k-point    28 on ccs1005
   Task   107 k-point    28 on ccs1005
   Task   108 k-point    28 on ccs1005
   Task   109 k-point    28 on ccs1005
   Task   110 k-point    29 on ccs1005
   Task   111 k-point    29 on ccs1005
   Task   112 k-point    29 on ccs1005
   Task   113 k-point    29 on ccs1005
   Task   114 k-point    30 on ccs1005
   Task   115 k-point    30 on ccs1005
   Task   116 k-point    30 on ccs1005
   Task   117 k-point    30 on ccs1005
   Task   118 k-point    31 on ccs1005
   Task   119 k-point    31 on ccs1005
   Task   120 k-point    31 on ccs1013
   Task   121 k-point    31 on ccs1013
   Task   122 k-point    32 on ccs1013
   Task   123 k-point    32 on ccs1013
   Task   124 k-point    32 on ccs1013
   Task   125 k-point    32 on ccs1013
   Task   126 k-point    33 on ccs1013
   Task   127 k-point    33 on ccs1013
   Task   128 k-point    33 on ccs1013
   Task   129 k-point    33 on ccs1013
   Task   130 k-point    34 on ccs1013
   Task   131 k-point    34 on ccs1013
   Task   132 k-point    34 on ccs1013
   Task   133 k-point    34 on ccs1013
   Task   134 k-point    35 on ccs1013
   Task   135 k-point    35 on ccs1013
   Task   136 k-point    35 on ccs1013
   Task   137 k-point    35 on ccs1013
   Task   138 k-point    36 on ccs1013
   Task   139 k-point    36 on ccs1013
   Task   140 k-point    36 on ccs1013
   Task   141 k-point    36 on ccs1013
   Task   142 k-point    37 on ccs1013
   Task   143 k-point    37 on ccs1013
   Task   144 k-point    37 on ccs1013
   Task   145 k-point    37 on ccs1013
   Task   146 k-point    38 on ccs1013
   Task   147 k-point    38 on ccs1013
   Task   148 k-point    38 on ccs1013
   Task   149 k-point    38 on ccs1013
   Task   150 k-point    39 on ccs1013
   Task   151 k-point    39 on ccs1013
   Task   152 k-point    39 on ccs1013
   Task   153 k-point    40 on ccs1013
   Task   154 k-point    40 on ccs1013
   Task   155 k-point    40 on ccs1013
   Task   156 k-point    40 on ccs1013
   Task   157 k-point    41 on ccs1013
   Task   158 k-point    41 on ccs1013
   Task   159 k-point    41 on ccs1013
   Task   160 k-point    41 on ccs1015
   Task   161 k-point    42 on ccs1015
   Task   162 k-point    42 on ccs1015
   Task   163 k-point    42 on ccs1015
   Task   164 k-point    42 on ccs1015
   Task   165 k-point    43 on ccs1015
   Task   166 k-point    43 on ccs1015
   Task   167 k-point    43 on ccs1015
   Task   168 k-point    43 on ccs1015
   Task   169 k-point    44 on ccs1015
   Task   170 k-point    44 on ccs1015
   Task   171 k-point    44 on ccs1015
   Task   172 k-point    44 on ccs1015
   Task   173 k-point    45 on ccs1015
   Task   174 k-point    45 on ccs1015
   Task   175 k-point    45 on ccs1015
   Task   176 k-point    45 on ccs1015
   Task   177 k-point    46 on ccs1015
   Task   178 k-point    46 on ccs1015
   Task   179 k-point    46 on ccs1015
   Task   180 k-point    46 on ccs1015
   Task   181 k-point    47 on ccs1015
   Task   182 k-point    47 on ccs1015
   Task   183 k-point    47 on ccs1015
   Task   184 k-point    47 on ccs1015
   Task   185 k-point    48 on ccs1015
   Task   186 k-point    48 on ccs1015
   Task   187 k-point    48 on ccs1015
   Task   188 k-point    48 on ccs1015
   Task   189 k-point    49 on ccs1015
   Task   190 k-point    49 on ccs1015
   Task   191 k-point    49 on ccs1015
   Task   192 k-point    49 on ccs1015
   Task   193 k-point    50 on ccs1015
   Task   194 k-point    50 on ccs1015
   Task   195 k-point    50 on ccs1015
   Task   196 k-point    50 on ccs1015
   Task   197 k-point    51 on ccs1015
   Task   198 k-point    51 on ccs1015
   Task   199 k-point    51 on ccs1015
  K-point:     1 Tasks:     4 split into      2 X      2 BLACS grid
  Calculating block size based on n_basis =          328  max_nprow =            3  max_npcol =            2
  ScaLAPACK block size set to:           16
  Allocating        0.431 MB for ovlp_complex
  Allocating        0.431 MB for ham_complex
  Allocating        0.431 MB for eigenvec_complex
  Required Scalapack workspace - INTEGER:            1  REAL:             1  COMPLEX:            1
  Available memory per node after initialize_scalapack [GB]:    302.18
  Available memory per node after aims_elsi_init_scf [GB]:    302.18
  Available memory per node after initialize_fixed_grids [GB]:    302.18
  Partitioning the integration grid into batches with parallel hashing+maxmin method.
  | Number of batches:     1339
  | Maximal batch size:     113
  | Minimal batch size:      51
  | Average batch size:      78.781
  | Standard deviation of batch sizes:      17.211

  Integration load balanced across   200 MPI tasks.
  Work distribution over tasks is as follows:
  Task     0 has        502 integration points.
  Task     1 has        505 integration points.
  Task     2 has        501 integration points.
  Task     3 has        501 integration points.
  Task     4 has        546 integration points.
  Task     5 has        565 integration points.
  Task     6 has        534 integration points.
  Task     7 has        501 integration points.
  Task     8 has        509 integration points.
  Task     9 has        500 integration points.
  Task    10 has        506 integration points.
  Task    11 has        521 integration points.
  Task    12 has        557 integration points.
  Task    13 has        524 integration points.
  Task    14 has        566 integration points.
  Task    15 has        585 integration points.
  Task    16 has        523 integration points.
  Task    17 has        525 integration points.
  Task    18 has        508 integration points.
  Task    19 has        512 integration points.
  Task    20 has        503 integration points.
  Task    21 has        509 integration points.
  Task    22 has        549 integration points.
  Task    23 has        500 integration points.
  Task    24 has        506 integration points.
  Task    25 has        500 integration points.
  Task    26 has        503 integration points.
  Task    27 has        498 integration points.
  Task    28 has        533 integration points.
  Task    29 has        529 integration points.
  Task    30 has        520 integration points.
  Task    31 has        529 integration points.
  Task    32 has        498 integration points.
  Task    33 has        506 integration points.
  Task    34 has        555 integration points.
  Task    35 has        534 integration points.
  Task    36 has        557 integration points.
  Task    37 has        507 integration points.
  Task    38 has        557 integration points.
  Task    39 has        517 integration points.
  Task    40 has        526 integration points.
  Task    41 has        500 integration points.
  Task    42 has        527 integration points.
  Task    43 has        588 integration points.
  Task    44 has        550 integration points.
  Task    45 has        560 integration points.
  Task    46 has        529 integration points.
  Task    47 has        508 integration points.
  Task    48 has        593 integration points.
  Task    49 has        538 integration points.
  Task    50 has        559 integration points.
  Task    51 has        505 integration points.
  Task    52 has        510 integration points.
  Task    53 has        512 integration points.
  Task    54 has        518 integration points.
  Task    55 has        590 integration points.
  Task    56 has        500 integration points.
  Task    57 has        509 integration points.
  Task    58 has        510 integration points.
  Task    59 has        496 integration points.
  Task    60 has        583 integration points.
  Task    61 has        511 integration points.
  Task    62 has        535 integration points.
  Task    63 has        501 integration points.
  Task    64 has        522 integration points.
  Task    65 has        522 integration points.
  Task    66 has        503 integration points.
  Task    67 has        507 integration points.
  Task    68 has        546 integration points.
  Task    69 has        519 integration points.
  Task    70 has        532 integration points.
  Task    71 has        525 integration points.
  Task    72 has        536 integration points.
  Task    73 has        507 integration points.
  Task    74 has        514 integration points.
  Task    75 has        503 integration points.
  Task    76 has        541 integration points.
  Task    77 has        499 integration points.
  Task    78 has        536 integration points.
  Task    79 has        548 integration points.
  Task    80 has        545 integration points.
  Task    81 has        551 integration points.
  Task    82 has        541 integration points.
[...]
    101       2.00000          -0.635939          -17.30477
    102       2.00000          -0.634863          -17.27550
    103       2.00000          -0.608364          -16.55442
    104       2.00000          -0.593584          -16.15225
    105       2.00000          -0.581681          -15.82835
    106       2.00000          -0.571277          -15.54525
    107       2.00000          -0.560232          -15.24468
    108       2.00000          -0.547241          -14.89120
    109       2.00000          -0.546815          -14.87959
    110       2.00000          -0.525282          -14.29366
    111       2.00000          -0.519605          -14.13916
    112       2.00000          -0.514231          -13.99293
    113       2.00000          -0.493729          -13.43505
    114       2.00000          -0.486823          -13.24713
    115       2.00000          -0.479341          -13.04353
    116       2.00000          -0.454981          -12.38066
    117       2.00000          -0.443627          -12.07170
    118       2.00000          -0.432181          -11.76024
    119       2.00000          -0.430767          -11.72176
    120       2.00000          -0.425953          -11.59076
    121       2.00000          -0.412341          -11.22037
    122       2.00000          -0.398379          -10.84045
    123       2.00000          -0.390909          -10.63718
    124       2.00000          -0.384997          -10.47631
    125       2.00000          -0.383953          -10.44790
    126       2.00000          -0.376906          -10.25612
    127       2.00000          -0.369456          -10.05340
    128       2.00000          -0.368942          -10.03942
    129       0.00000          -0.122153           -3.32396
    130       0.00000          -0.118352           -3.22051
    131       0.00000          -0.113390           -3.08549
    132       0.00000          -0.099685           -2.71256
    133       0.00000          -0.093619           -2.54751
    134       0.00000          -0.088794           -2.41620
    135       0.00000          -0.088090           -2.39705
    136       0.00000          -0.081393           -2.21482
    137       0.00000          -0.069086           -1.87992
    138       0.00000          -0.058969           -1.60462
    139       0.00000          -0.053455           -1.45459
    140       0.00000          -0.037157           -1.01108
    141       0.00000          -0.025208           -0.68596
    142       0.00000          -0.022340           -0.60791
    143       0.00000          -0.010406           -0.28317
    144       0.00000          -0.002481           -0.06752
    145       0.00000           0.004521            0.12303
    146       0.00000           0.022191            0.60384
    147       0.00000           0.026509            0.72135
    148       0.00000           0.028245            0.76859
    149       0.00000           0.045533            1.23902
    150       0.00000           0.053071            1.44415
    151       0.00000           0.059819            1.62776
    152       0.00000           0.077111            2.09829
    153       0.00000           0.139915            3.80728
    154       0.00000           0.250173            6.80756
    155       0.00000           0.315919            8.59659
    156       0.00000           0.323745            8.80956
    157       0.00000           0.347250            9.44915
    158       0.00000           0.352541            9.59312
    159       0.00000           0.354636            9.65014
    160       0.00000           0.376050           10.23285
    161       0.00000           0.423241           11.51698
    162       0.00000           0.446615           12.15300
    163       0.00000           0.458197           12.46818
    164       0.00000           0.471172           12.82124
    165       0.00000           0.473004           12.87110
    166       0.00000           0.475654           12.94320
    167       0.00000           0.502631           13.67730
    168       0.00000           0.505255           13.74869
    169       0.00000           0.516273           14.04852
    170       0.00000           0.517744           14.08854
    171       0.00000           0.518548           14.11041
    172       0.00000           0.549695           14.95796
    173       0.00000           0.564470           15.36001
    174       0.00000           0.574147           15.62333
    175       0.00000           0.579827           15.77791
    176       0.00000           0.607495           16.53078
    177       0.00000           0.615589           16.75102
    178       0.00000           0.661540           18.00141
    179       0.00000           0.673397           18.32405
    180       0.00000           0.699658           19.03866
    181       0.00000           0.701793           19.09677
    182       0.00000           0.718386           19.54827
    183       0.00000           0.725307           19.73661
    184       0.00000           0.730758           19.88493
    185       0.00000           0.741584           20.17954
    186       0.00000           0.754397           20.52817

  What follows are estimated values for band gap, HOMO, LUMO, etc.
  | They are estimated on a discrete k-point grid and not necessarily exact.
  | For converged numbers, create a DOS and/or band structure plot on a denser k-grid.

  Highest occupied state (VBM) at     -9.27566073 eV (relative to internal zero)
  | Occupation number:      2.00000000
  | K-point:       3 at    0.000000    0.000000    0.400000 (in units of recip. lattice)

  Lowest unoccupied state (CBM) at    -3.76104642 eV (relative to internal zero)
  | Occupation number:      0.00000000
  | K-point:       3 at    0.000000    0.000000    0.400000 (in units of recip. lattice)

  ESTIMATED overall HOMO-LUMO gap:      5.51461431 eV between HOMO at k-point 3 and LUMO at k-point 3
  | This appears to be a direct band gap.
  The gap value is above 0.2 eV. Unless you are using a very sparse k-point grid,
  this system is most likely an insulator or a semiconductor.

  | Chemical Potential                          :    -4.19539148 eV
  | Note that, for insulating systems, the printed 'chemical potential' value is not uniquely defined.
  | It can be anywhere in the energy gap, as long as it correctly separates occupied and unoccupied states.
  | In systems with a gap, the physically relevant chemical potential is the VBM or HOMO.

  Self-consistency cycle converged.


------------------------------------------------------------
  End self-consistency iteration #    26       :  max(cpu_time)    wall_clock(cpu1)
  | Time for this iteration                     :       34.019 s          34.133 s
  | Charge density & force component update     :        1.535 s           1.538 s
  | Density mixing                              :        0.012 s           0.007 s
  | Hartree multipole update                    :        0.002 s           0.002 s
  | Hartree multipole summation                 :        0.178 s           0.179 s
  | Hartree pot. SCF incomplete forces          :        0.180 s           0.180 s
  | Integration                                 :        0.157 s           0.157 s
  | Fock matrix evaluation                      :       31.886 s          31.961 s
  | Solution of K.-S. eqns.                     :        0.064 s           0.064 s
  | Total energy evaluation                     :        0.005 s           0.003 s

  Partial memory accounting:
  | Current value for overall tracked memory usage:
  |   Minimum:      319.366 MB (on task  27)
  |   Maximum:      442.829 MB (on task 198)
  |   Average:      358.538 MB
  | Peak value for overall tracked memory usage:
  |   Minimum:      373.182 MB (on task 107 after allocating tmp2_aux_mem)
  |   Maximum:      482.938 MB (on task  57 after allocating ovlp3fn2)
  |   Average:      407.892 MB
  | Largest tracked array allocation so far:
  |   Minimum:       75.032 MB (ovlp3fn2 on task   7)
  |   Maximum:      103.512 MB (ovlp3fn2 on task  19)
  |   Average:       84.684 MB
  Note:  These values currently only include a subset of arrays which are explicitly tracked.
  The "true" memory usage will be greater.
------------------------------------------------------------
  Removing unitary transformations (pure translations, rotations) from forces on atoms.
  Atomic forces before filtering:
  | Net force on center of mass :  -0.508419E-05  0.148687E-03 -0.358433E-04 eV/A
  Atomic forces after filtering:
  | Net force on center of mass :   0.209070E-17  0.000000E+00 -0.135024E-17 eV/A

  Energy and forces in a compact form:
  | Total energy uncorrected      :         -0.419726233894971E+06 eV
  | Total energy corrected        :         -0.419726233894971E+06 eV  <-- do not rely on this value for anything but (periodic) metals
  | Electronic free energy        :         -0.419726233894971E+06 eV
  Total atomic forces (unitary forces cleaned) [eV/Ang]:
  |    1         -0.135733266097644E-02         -0.289700260453024E-02          0.478744287100781E-02
  |    2          0.203135941903750E-03          0.342505747805433E-02         -0.585640825413307E-02
  |    3          0.130736059119400E-02          0.627732075899470E-03          0.414584436600930E-02
  |    4          0.229378619422529E-03         -0.187313046865741E-03         -0.412025304964272E-02
  |    5         -0.198844726357205E-02          0.159736452524661E-02          0.107819888308336E-02
  |    6          0.651925225216695E-02          0.299446269046388E-02         -0.341544947019352E-03
  |    7         -0.217242596379469E-02         -0.283454091675612E-02         -0.465165739144691E-03
  |    8         -0.223826050651431E-02          0.105012951941182E-02          0.156228326503539E-02
  |    9          0.185182560020847E-02         -0.115466784127241E-02          0.662697831862301E-04
  |   10         -0.249936397167442E-02         -0.169859005929094E-03          0.235161495301155E-02
  |   11         -0.323947362031075E-02          0.117292697322938E-04          0.868292909241243E-03
  |   12          0.495494741615556E-02         -0.144655129563792E-02         -0.432717857190276E-02
  |   13          0.476405060000748E-02         -0.309690737419935E-02         -0.168374205208188E-02
  |   14          0.133723121785740E-02         -0.164228004593742E-02         -0.308461943200117E-03
  |   15         -0.437617332250197E-02          0.290785421474090E-03          0.214216400193882E-02
  |   16         -0.329570492957151E-02          0.343186115084580E-02          0.100643524610886E-03

  ------------------------------------ 
  Start decomposition of the XC Energy 
  ------------------------------------ 
  X and C from original XC functional choice 
  Hartree-Fock Energy :       -137.944511519 Ha          -3753.661142614 eV
  X Energy            :       -550.818515451 Ha         -14988.534413660 eV
  C Energy            :        -11.707033551 Ha           -318.564591320 eV
  XC Energy w/o HF    :       -424.581037483 Ha         -11553.437862366 eV
  Total XC Energy     :       -562.525549002 Ha         -15307.099004980 eV
  ------------------------------------ 
  LDA X and C from self-consistent density 
  X Energy LDA        :       -519.470845683 Ha         -14135.520918431 eV
  C Energy LDA        :        -21.621048233 Ha           -588.338656758 eV
  ------------------------------------ 
  End decomposition of the XC Energy 
  ------------------------------------ 

------------------------------------------------------------

------------------------------------------------------------------------------
  Final output of selected total energy values:

  The following output summarizes some interesting total energy values
  at the end of a run (AFTER all relaxation, molecular dynamics, etc.).

  | Total energy of the DFT / Hartree-Fock s.c.f. calculation      :        -419726.233894971 eV
  | Final zero-broadening corrected energy (caution - metals only) :        -419726.233894971 eV
  | For reference only, the value of 1 Hartree used in FHI-aims is :             27.211384500 eV
  | For reference only, the overall average (free atom contribution
  | + realspace contribution) of the electrostatic potential after
  | s.c.f. convergence is                                          :            -23.839769535 eV

  Before relying on these values, please be sure to understand exactly which
  total energy value is referred to by a given number. Different objects may
  all carry the same name 'total energy'. Definitions:

  Total energy of the DFT / Hartree-Fock s.c.f. calculation:
  | Note that this energy does not include ANY quantities calculated after the
  | s.c.f. cycle, in particular not ANY RPA, MP2, etc. many-body perturbation terms.

  Final zero-broadening corrected energy:
  | For metallic systems only, a broadening of the occupation numbers at the Fermi
  | level can be extrapolated back to zero broadening by an electron-gas inspired
  | formula. For all systems that are not real metals, this value can be
  | meaningless and should be avoided.

------------------------------------------------------------------------------
  Methods described in the following list of references were used in this FHI-aims run.
  If you publish the results, please make sure to cite these reference if they apply.
  FHI-aims is an academic code, and for our developers (often, Ph.D. students
  and postdocs), scientific credit in the community is essential.
  Thank you for helping us!

  For any use of FHI-aims, please cite:

    Volker Blum, Ralf Gehrke, Felix Hanke, Paula Havu, Ville Havu,
    Xinguo Ren, Karsten Reuter, and Matthias Scheffler
    'Ab initio molecular simulations with numeric atom-centered orbitals'
    Computer Physics Communications 180, 2175-2196 (2009)
    http://doi.org/10.1016/j.cpc.2009.06.022


  For Hartree-Fock, hybrid functionals, or many-body perturbation theory used in your run, please cite:

    Xinguo Ren, Patrick Rinke, Volker Blum, Juergen Wieferink, Alex Tkatchenko,
    Andrea Sanfilippo, Karsten Reuter, and Matthias Scheffler,
    'Resolution-of-identity approach to Hartree-Fock, hybrid density functionals,
    RPA, MP2, and GW with numeric atom-centered orbital basis functions'
    New Journal of Physics 14, 053020 (2012).
    http://doi.org/10.1088/1367-2630/14/5/053020


  The provided symmetry information was generated with SPGlib:

    Atsushi Togo, Yusuke Seto, Dimitar Pashov
    SPGlib 1.7.3 obtained from http://spglib.sourceforge.net
    Copyright (C) 2008 Atsushi Togo


 DFT+U infrastructure was used in your run
 please cite:

 Matthias Kick, Karsten Reuter and Harald Oberhofer,
 Intricacies Of DFT+U, not only in a Numeric Atom Centered Orbital Framework

 Journal of Chemical Theory and Computation
 https://


  The ELSI infrastructure was used in your run to solve the Kohn-Sham electronic structure.
  Please check out http://elsi-interchange.org to learn more.
  If scalability is important for your project, please acknowledge ELSI by citing:

    V. W-z. Yu, F. Corsetti, A. Garcia, W. P. Huhn, M. Jacquelin, W. Jia,
    B. Lange, L. Lin, J. Lu, W. Mi, A. Seifitokaldani, A. Vazquez-Mayagoitia,
    C. Yang, H. Yang, and V. Blum
    'ELSI: A unified software interface for Kohn-Sham electronic structure solvers'
    Computer Physics Communications 222, 267-285 (2018).
    http://doi.org/10.1016/j.cpc.2017.09.007


  For the real-space grid partitioning and parallelization used in this calculation, please cite:

    Ville Havu, Volker Blum, Paula Havu, and Matthias Scheffler,
    'Efficient O(N) integration for all-electron electronic structure calculation'
    'using numerically tabulated basis functions'
    Journal of Computational Physics 228, 8367-8379 (2009).
    http://doi.org/10.1016/j.jcp.2009.08.008


  The high-level electronic structure method used in your calculation
  employed our efficient localized resolution of identity for the Coulomb operator.
  Some calculations, especially large-scale hybrid density functional theory,
  are only possible thanks to this development. For this feature, please cite:

    Arvid Ihrig, Juergen Wieferink, Igor Ying Zhang, Matti Ropo, Xinguo Ren,
    Patrick Rinke, Matthias Scheffler, and Volker Blum,
    'Accurate localized resolution of identity approach for linear-scaling
    hybrid density functionals and for many-body perturbation theory'
    New Journal of Physics 117, 093020 (2015).
    http://doi.org/10.1088/1367-2630/17/9/093020

  Of course, there are many other important community references, e.g., those cited in the
  above references. Our list is limited to references that describe implementations in the
  FHI-aims code. The reason is purely practical (length of this list) - please credit others as well.

 * A warning was issued further up regarding the accuracy of onsite integrals.
   An integral with a negative eigenvalue was among the flagged integrals.
   In most standard situations, this warning is probably harmless.
   If needed, this can be verified by adjusting the radial_multiplier flag.

------------------------------------------------------------
          Leaving FHI-aims.
          Date     :  20240522, Time     :  105927.218

          Computational steps:
          | Number of self-consistency cycles          :           26
          | Number of SCF (re)initializations          :            1

          Detailed time accounting                     :  max(cpu_time)    wall_clock(cpu1)
          | Total time                                  :      782.468 s         785.336 s
          | Preparation time                            :        0.698 s           0.697 s
          | Boundary condition initalization            :        0.078 s           0.077 s
          | Grid partitioning                           :        0.073 s           0.074 s
          | Preloading free-atom quantities on grid     :        0.147 s           0.148 s
          | Free-atom superposition energy              :        0.012 s           0.012 s
          | Total time for integrations                 :        4.614 s           4.628 s
          | Product basis setup: Total time             :       23.723 s          23.931 s
          | Total time evaluating exchange matrix       :      737.036 s         738.764 s
          | Total time for solution of K.-S. equations  :        2.101 s           2.048 s
          | Total time for density & force components   :        9.501 s           9.526 s
          | Total time for mixing                       :        0.288 s           0.166 s
          | Total time for Hartree multipole update     :        0.080 s           0.085 s
          | Total time for Hartree multipole sum        :        2.129 s           2.139 s
          | Total time for total energy evaluation      :        0.130 s           0.083 s
          | Total time NSC force correction             :        0.360 s           0.361 s
          | Total time for scaled ZORA corrections      :        0.000 s           0.000 s

          Partial memory accounting:
          | Residual value for overall tracked memory usage across tasks:     0.000000 MB (should be 0.000000 MB)
          | Peak values for overall tracked memory usage:
          |   Minimum:      373.182 MB (on task 107 after allocating tmp2_aux_mem)
          |   Maximum:      482.938 MB (on task  57 after allocating ovlp3fn2)
          |   Average:      407.892 MB
          | Largest tracked array allocation:
          |   Minimum:       75.032 MB (ovlp3fn2 on task   7)
          |   Maximum:      103.512 MB (ovlp3fn2 on task  19)
          |   Average:       84.684 MB
          Note:  These values currently only include a subset of arrays which are explicitly tracked.
          The "true" memory usage will be greater.

          Have a nice day.
------------------------------------------------------------
