------------------------------------------------------------
          Invoking FHI-aims ...

          When using FHI-aims, please cite the following reference:

            Volker Blum, Ralf Gehrke, Felix Hanke, Paula Havu,
            Ville Havu, Xinguo Ren, Karsten Reuter, and Matthias Scheffler,
            'Ab Initio Molecular Simulations with Numeric Atom-Centered Orbitals',
            Computer Physics Communications 180, 2175-2196 (2009)

          In addition, many other developments in FHI-aims are likely important for
          your particular application. If so, please cite them. A partial list of references
          is written at the end of this file. Thank you for giving credit to the authors
          of these developments.

          For general information about FHI-aims please find us at

            https://fhi-aims.org

          Online tutorials can be found at

            https://fhi-aims-club.gitlab.io/tutorials/tutorials-overview/

          For any questions about FHI-aims, please visit our slack channel at

            https://fhi-aims.slack.com

          and our main development and support site at

            https://aims-git.rz-berlin.mpg.de .

          The latter site, in particular, has a wiki to collect information, as well
          as an issue tracker to log discussions, suggest improvements, and report issues
          or bugs. https://aims-git.rz-berlin.mpg.de is also the main development site
          of the project and all new and updated code versions can be obtained there.
          Please send an email to aims-coordinators@fhi-berlin.mpg.de and we will add
          you to these sites. They are for you and everyone is welcome there.

------------------------------------------------------------



  Date     :  20250316, Time     :  100322.264
  Time zero on CPU 1             :   0.249124000000000E+00  s.
  Internal wall clock time zero  :           511351402.264  s.

  FHI-aims created a unique identifier for this run for later identification
  aims_uuid : CBBB1E01-458F-429E-A16F-C625436B9293

  Build configuration of the current instance of FHI-aims
  -------------------------------------------------------
  FHI-aims version      : 230612
  Commit number         : 0c86b0d53
  CMake host system     : Linux-3.10.0-1160.80.1.el7.x86_64
  CMake version         : 3.24.2
  Fortran compiler      : /apps/compilers/intel/2018.2/compilers_and_libraries_2018/linux/mpi/intel64/bin/mpif90 (Intel) version 18.0.2.20180210
  Fortran compiler flags: -O3 -ip -fp-model precise
  C compiler            : /apps/compilers/intel/2018.2/compilers_and_libraries_2018/linux/bin/intel64/icc (Intel) version 18.0.2.20180210
  C compiler flags      : -O3 -ip -fp-model precise -std=gnu99
  HIP compiler          :
  HIP compiler flags    :
  HIP GPU arch          :
  ELPA2 kernel          : AVX2
  Using MPI
  Using ScaLAPACK
  Using LibXC
  Using i-PI
  Using RLSY
  Linking against: /apps/compilers/intel/2018.2/compilers_and_libraries_2018/linux/mkl/lib/intel64/libmkl_intel_lp64.so
                   /apps/compilers/intel/2018.2/compilers_and_libraries_2018/linux/mkl/lib/intel64/libmkl_intel_thread.so
                   /apps/compilers/intel/2018.2/compilers_and_libraries_2018/linux/mkl/lib/intel64/libmkl_core.so
                   /apps/compilers/intel/2018.2/compilers_and_libraries_2018/linux/mkl/lib/intel64/libmkl_blacs_intelmpi_lp64.so
                   /apps/compilers/intel/2018.2/compilers_and_libraries_2018/linux/mkl/lib/intel64/libmkl_scalapack_lp64.so
                   /usr/lib64/libpthread.so

  Using      640 parallel tasks.
  Task        0 on host cca0005 reporting.
  Task        1 on host cca0005 reporting.
  Task        2 on host cca0005 reporting.
  Task        3 on host cca0005 reporting.
  Task        4 on host cca0005 reporting.
  Task        5 on host cca0005 reporting.
  Task        6 on host cca0005 reporting.
  Task        7 on host cca0005 reporting.
  Task        8 on host cca0005 reporting.
  Task        9 on host cca0005 reporting.
  Task       10 on host cca0005 reporting.
  Task       11 on host cca0005 reporting.
  Task       12 on host cca0005 reporting.
  Task       13 on host cca0005 reporting.
  Task       14 on host cca0005 reporting.
  Task       15 on host cca0005 reporting.
  Task       16 on host cca0005 reporting.
  Task       17 on host cca0005 reporting.
  Task       18 on host cca0005 reporting.
  Task       19 on host cca0005 reporting.
  Task       20 on host cca0005 reporting.
  Task       21 on host cca0005 reporting.
  Task       22 on host cca0005 reporting.
  Task       23 on host cca0005 reporting.
  Task       24 on host cca0005 reporting.
  Task       25 on host cca0005 reporting.
  Task       26 on host cca0005 reporting.
  Task       27 on host cca0005 reporting.
  Task       28 on host cca0005 reporting.
  Task       29 on host cca0005 reporting.
  Task       30 on host cca0005 reporting.
  Task       31 on host cca0005 reporting.
  Task       32 on host cca0005 reporting.
  Task       33 on host cca0005 reporting.
  Task       34 on host cca0005 reporting.
  Task       35 on host cca0005 reporting.
  Task       36 on host cca0005 reporting.
  Task       37 on host cca0005 reporting.
  Task       38 on host cca0005 reporting.
  Task       39 on host cca0005 reporting.
  Task       40 on host cca0005 reporting.
  Task       41 on host cca0005 reporting.
  Task       42 on host cca0005 reporting.
  Task       43 on host cca0005 reporting.
  Task       44 on host cca0005 reporting.
  Task       45 on host cca0005 reporting.
  Task       46 on host cca0005 reporting.
  Task       47 on host cca0005 reporting.
  Task       48 on host cca0005 reporting.
  Task       49 on host cca0005 reporting.
  Task       50 on host cca0005 reporting.
  Task       51 on host cca0005 reporting.
  Task       52 on host cca0005 reporting.
  Task       53 on host cca0005 reporting.
  Task       54 on host cca0005 reporting.
  Task       55 on host cca0005 reporting.
  Task       56 on host cca0005 reporting.
  Task       57 on host cca0005 reporting.
  Task       58 on host cca0005 reporting.
  Task       59 on host cca0005 reporting.
  Task       60 on host cca0005 reporting.
  Task       61 on host cca0005 reporting.
  Task       62 on host cca0005 reporting.
  Task       63 on host cca0005 reporting.
  Task       64 on host cca0008 reporting.
  Task       65 on host cca0008 reporting.
  Task       66 on host cca0008 reporting.
  Task       67 on host cca0008 reporting.
  Task       68 on host cca0008 reporting.
  Task       69 on host cca0008 reporting.
  Task       70 on host cca0008 reporting.
  Task       71 on host cca0008 reporting.
  Task       72 on host cca0008 reporting.
  Task       73 on host cca0008 reporting.
  Task       74 on host cca0008 reporting.
  Task       75 on host cca0008 reporting.
  Task       76 on host cca0008 reporting.
  Task       77 on host cca0008 reporting.
  Task       78 on host cca0008 reporting.
  Task       79 on host cca0008 reporting.
  Task       80 on host cca0008 reporting.
  Task       81 on host cca0008 reporting.
  Task       82 on host cca0008 reporting.
  Task       83 on host cca0008 reporting.
  Task       84 on host cca0008 reporting.
  Task       85 on host cca0008 reporting.
  Task       86 on host cca0008 reporting.
  Task       87 on host cca0008 reporting.
  Task       88 on host cca0008 reporting.
  Task       89 on host cca0008 reporting.
  Task       90 on host cca0008 reporting.
  Task       91 on host cca0008 reporting.
  Task       92 on host cca0008 reporting.
  Task       93 on host cca0008 reporting.
  Task       94 on host cca0008 reporting.
  Task       95 on host cca0008 reporting.
  Task       96 on host cca0008 reporting.
  Task       97 on host cca0008 reporting.
  Task       98 on host cca0008 reporting.
  Task       99 on host cca0008 reporting.
  Task      100 on host cca0008 reporting.
  Task      101 on host cca0008 reporting.
  Task      102 on host cca0008 reporting.
  Task      103 on host cca0008 reporting.
  Task      104 on host cca0008 reporting.
  Task      105 on host cca0008 reporting.
  Task      106 on host cca0008 reporting.
  Task      107 on host cca0008 reporting.
  Task      108 on host cca0008 reporting.
  Task      109 on host cca0008 reporting.
  Task      110 on host cca0008 reporting.
  Task      111 on host cca0008 reporting.
  Task      112 on host cca0008 reporting.
  Task      113 on host cca0008 reporting.
  Task      114 on host cca0008 reporting.
  Task      115 on host cca0008 reporting.
  Task      116 on host cca0008 reporting.
  Task      117 on host cca0008 reporting.
  Task      118 on host cca0008 reporting.
  Task      119 on host cca0008 reporting.
  Task      120 on host cca0008 reporting.
  Task      121 on host cca0008 reporting.
  Task      122 on host cca0008 reporting.
  Task      123 on host cca0008 reporting.
  Task      124 on host cca0008 reporting.
  Task      125 on host cca0008 reporting.
  Task      126 on host cca0008 reporting.
  Task      127 on host cca0008 reporting.
  Task      128 on host cca0014 reporting.
  Task      129 on host cca0014 reporting.
  Task      130 on host cca0014 reporting.
  Task      131 on host cca0014 reporting.
  Task      132 on host cca0014 reporting.
  Task      133 on host cca0014 reporting.
  Task      134 on host cca0014 reporting.
  Task      135 on host cca0014 reporting.
  Task      136 on host cca0014 reporting.
  Task      137 on host cca0014 reporting.
  Task      138 on host cca0014 reporting.
  Task      139 on host cca0014 reporting.
  Task      140 on host cca0014 reporting.
  Task      141 on host cca0014 reporting.
  Task      142 on host cca0014 reporting.
  Task      143 on host cca0014 reporting.
  Task      144 on host cca0014 reporting.
  Task      145 on host cca0014 reporting.
  Task      146 on host cca0014 reporting.
  Task      147 on host cca0014 reporting.
  Task      148 on host cca0014 reporting.
  Task      149 on host cca0014 reporting.
  Task      150 on host cca0014 reporting.
  Task      151 on host cca0014 reporting.
  Task      152 on host cca0014 reporting.
  Task      153 on host cca0014 reporting.
  Task      154 on host cca0014 reporting.
  Task      155 on host cca0014 reporting.
  Task      156 on host cca0014 reporting.
  Task      157 on host cca0014 reporting.
  Task      158 on host cca0014 reporting.
  Task      159 on host cca0014 reporting.
  Task      160 on host cca0014 reporting.
  Task      161 on host cca0014 reporting.
  Task      162 on host cca0014 reporting.
  Task      163 on host cca0014 reporting.
  Task      164 on host cca0014 reporting.
  Task      165 on host cca0014 reporting.
  Task      166 on host cca0014 reporting.
  Task      167 on host cca0014 reporting.
  Task      168 on host cca0014 reporting.
  Task      169 on host cca0014 reporting.
  Task      170 on host cca0014 reporting.
  Task      171 on host cca0014 reporting.
  Task      172 on host cca0014 reporting.
  Task      173 on host cca0014 reporting.
  Task      174 on host cca0014 reporting.
  Task      175 on host cca0014 reporting.
  Task      176 on host cca0014 reporting.
  Task      177 on host cca0014 reporting.
  Task      178 on host cca0014 reporting.
  Task      179 on host cca0014 reporting.
  Task      180 on host cca0014 reporting.
  Task      181 on host cca0014 reporting.
  Task      182 on host cca0014 reporting.
  Task      183 on host cca0014 reporting.
  Task      184 on host cca0014 reporting.
  Task      185 on host cca0014 reporting.
  Task      186 on host cca0014 reporting.
  Task      187 on host cca0014 reporting.
  Task      188 on host cca0014 reporting.
  Task      189 on host cca0014 reporting.
  Task      190 on host cca0014 reporting.
  Task      191 on host cca0014 reporting.
  Task      192 on host cca0015 reporting.
  Task      193 on host cca0015 reporting.
  Task      194 on host cca0015 reporting.
  Task      195 on host cca0015 reporting.
  Task      196 on host cca0015 reporting.
  Task      197 on host cca0015 reporting.
  Task      198 on host cca0015 reporting.
  Task      199 on host cca0015 reporting.
  Task      200 on host cca0015 reporting.
  Task      201 on host cca0015 reporting.
  Task      202 on host cca0015 reporting.
  Task      203 on host cca0015 reporting.
  Task      204 on host cca0015 reporting.
  Task      205 on host cca0015 reporting.
  Task      206 on host cca0015 reporting.
  Task      207 on host cca0015 reporting.
  Task      208 on host cca0015 reporting.
  Task      209 on host cca0015 reporting.
  Task      210 on host cca0015 reporting.
  Task      211 on host cca0015 reporting.
  Task      212 on host cca0015 reporting.
  Task      213 on host cca0015 reporting.
  Task      214 on host cca0015 reporting.
  Task      215 on host cca0015 reporting.
  Task      216 on host cca0015 reporting.
  Task      217 on host cca0015 reporting.
  Task      218 on host cca0015 reporting.
  Task      219 on host cca0015 reporting.
  Task      220 on host cca0015 reporting.
  Task      221 on host cca0015 reporting.
  Task      222 on host cca0015 reporting.
  Task      223 on host cca0015 reporting.
  Task      224 on host cca0015 reporting.
  Task      225 on host cca0015 reporting.
  Task      226 on host cca0015 reporting.
  Task      227 on host cca0015 reporting.
  Task      228 on host cca0015 reporting.
  Task      229 on host cca0015 reporting.
  Task      230 on host cca0015 reporting.
  Task      231 on host cca0015 reporting.
  Task      232 on host cca0015 reporting.
  Task      233 on host cca0015 reporting.
  Task      234 on host cca0015 reporting.
  Task      235 on host cca0015 reporting.
  Task      236 on host cca0015 reporting.
  Task      237 on host cca0015 reporting.
  Task      238 on host cca0015 reporting.
  Task      239 on host cca0015 reporting.
  Task      240 on host cca0015 reporting.
  Task      241 on host cca0015 reporting.
  Task      242 on host cca0015 reporting.
  Task      243 on host cca0015 reporting.
  Task      244 on host cca0015 reporting.
  Task      245 on host cca0015 reporting.
  Task      246 on host cca0015 reporting.
  Task      247 on host cca0015 reporting.
  Task      248 on host cca0015 reporting.
  Task      249 on host cca0015 reporting.
  Task      250 on host cca0015 reporting.
  Task      251 on host cca0015 reporting.
  Task      252 on host cca0015 reporting.
  Task      253 on host cca0015 reporting.
  Task      254 on host cca0015 reporting.
  Task      255 on host cca0015 reporting.
  Task      256 on host cca0018 reporting.
  Task      257 on host cca0018 reporting.
  Task      258 on host cca0018 reporting.
  Task      259 on host cca0018 reporting.
  Task      260 on host cca0018 reporting.
  Task      261 on host cca0018 reporting.
  Task      262 on host cca0018 reporting.
  Task      263 on host cca0018 reporting.
  Task      264 on host cca0018 reporting.
  Task      265 on host cca0018 reporting.
  Task      266 on host cca0018 reporting.
  Task      267 on host cca0018 reporting.
  Task      268 on host cca0018 reporting.
  Task      269 on host cca0018 reporting.
  Task      270 on host cca0018 reporting.
  Task      271 on host cca0018 reporting.
  Task      272 on host cca0018 reporting.
  Task      273 on host cca0018 reporting.
  Task      274 on host cca0018 reporting.
  Task      275 on host cca0018 reporting.
  Task      276 on host cca0018 reporting.
  Task      277 on host cca0018 reporting.
  Task      278 on host cca0018 reporting.
  Task      279 on host cca0018 reporting.
  Task      280 on host cca0018 reporting.
  Task      281 on host cca0018 reporting.
  Task      282 on host cca0018 reporting.
  Task      283 on host cca0018 reporting.
  Task      284 on host cca0018 reporting.
  Task      285 on host cca0018 reporting.
  Task      286 on host cca0018 reporting.
  Task      287 on host cca0018 reporting.
  Task      288 on host cca0018 reporting.
  Task      289 on host cca0018 reporting.
  Task      290 on host cca0018 reporting.
  Task      291 on host cca0018 reporting.
  Task      292 on host cca0018 reporting.
  Task      293 on host cca0018 reporting.
  Task      294 on host cca0018 reporting.
  Task      295 on host cca0018 reporting.
  Task      296 on host cca0018 reporting.
  Task      297 on host cca0018 reporting.
  Task      298 on host cca0018 reporting.
  Task      299 on host cca0018 reporting.
  Task      300 on host cca0018 reporting.
  Task      301 on host cca0018 reporting.
  Task      302 on host cca0018 reporting.
  Task      303 on host cca0018 reporting.
  Task      304 on host cca0018 reporting.
  Task      305 on host cca0018 reporting.
  Task      306 on host cca0018 reporting.
  Task      307 on host cca0018 reporting.
  Task      308 on host cca0018 reporting.
  Task      309 on host cca0018 reporting.
  Task      310 on host cca0018 reporting.
  Task      311 on host cca0018 reporting.
  Task      312 on host cca0018 reporting.
  Task      313 on host cca0018 reporting.
  Task      314 on host cca0018 reporting.
  Task      315 on host cca0018 reporting.
  Task      316 on host cca0018 reporting.
  Task      317 on host cca0018 reporting.
  Task      318 on host cca0018 reporting.
  Task      319 on host cca0018 reporting.
  Task      320 on host cca0019 reporting.
  Task      321 on host cca0019 reporting.
  Task      322 on host cca0019 reporting.
  Task      323 on host cca0019 reporting.
  Task      324 on host cca0019 reporting.
  Task      325 on host cca0019 reporting.
  Task      326 on host cca0019 reporting.
  Task      327 on host cca0019 reporting.
  Task      328 on host cca0019 reporting.
  Task      329 on host cca0019 reporting.
  Task      330 on host cca0019 reporting.
  Task      331 on host cca0019 reporting.
  Task      332 on host cca0019 reporting.
  Task      333 on host cca0019 reporting.
  Task      334 on host cca0019 reporting.
  Task      335 on host cca0019 reporting.
  Task      336 on host cca0019 reporting.
  Task      337 on host cca0019 reporting.
  Task      338 on host cca0019 reporting.
  Task      339 on host cca0019 reporting.
  Task      340 on host cca0019 reporting.
  Task      341 on host cca0019 reporting.
  Task      342 on host cca0019 reporting.
  Task      343 on host cca0019 reporting.
  Task      344 on host cca0019 reporting.
  Task      345 on host cca0019 reporting.
  Task      346 on host cca0019 reporting.
  Task      347 on host cca0019 reporting.
  Task      348 on host cca0019 reporting.
  Task      349 on host cca0019 reporting.
  Task      350 on host cca0019 reporting.
  Task      351 on host cca0019 reporting.
  Task      352 on host cca0019 reporting.
  Task      353 on host cca0019 reporting.
  Task      354 on host cca0019 reporting.
  Task      355 on host cca0019 reporting.
  Task      356 on host cca0019 reporting.
  Task      357 on host cca0019 reporting.
  Task      358 on host cca0019 reporting.
  Task      359 on host cca0019 reporting.
  Task      360 on host cca0019 reporting.
  Task      361 on host cca0019 reporting.
  Task      362 on host cca0019 reporting.
  Task      363 on host cca0019 reporting.
  Task      364 on host cca0019 reporting.
  Task      365 on host cca0019 reporting.
  Task      366 on host cca0019 reporting.
  Task      367 on host cca0019 reporting.
  Task      368 on host cca0019 reporting.
  Task      369 on host cca0019 reporting.
  Task      370 on host cca0019 reporting.
  Task      371 on host cca0019 reporting.
  Task      372 on host cca0019 reporting.
  Task      373 on host cca0019 reporting.
  Task      374 on host cca0019 reporting.
  Task      375 on host cca0019 reporting.
  Task      376 on host cca0019 reporting.
  Task      377 on host cca0019 reporting.
  Task      378 on host cca0019 reporting.
  Task      379 on host cca0019 reporting.
  Task      380 on host cca0019 reporting.
  Task      381 on host cca0019 reporting.
  Task      382 on host cca0019 reporting.
  Task      383 on host cca0019 reporting.
  Task      384 on host cca0021 reporting.
  Task      385 on host cca0021 reporting.
  Task      386 on host cca0021 reporting.
  Task      387 on host cca0021 reporting.
  Task      388 on host cca0021 reporting.
  Task      389 on host cca0021 reporting.
  Task      390 on host cca0021 reporting.
  Task      391 on host cca0021 reporting.
  Task      392 on host cca0021 reporting.
  Task      393 on host cca0021 reporting.
  Task      394 on host cca0021 reporting.
  Task      395 on host cca0021 reporting.
  Task      396 on host cca0021 reporting.
  Task      397 on host cca0021 reporting.
  Task      398 on host cca0021 reporting.
  Task      399 on host cca0021 reporting.
  Task      400 on host cca0021 reporting.
  Task      401 on host cca0021 reporting.
  Task      402 on host cca0021 reporting.
  Task      403 on host cca0021 reporting.
  Task      404 on host cca0021 reporting.
  Task      405 on host cca0021 reporting.
  Task      406 on host cca0021 reporting.
  Task      407 on host cca0021 reporting.
  Task      408 on host cca0021 reporting.
  Task      409 on host cca0021 reporting.
  Task      410 on host cca0021 reporting.
  Task      411 on host cca0021 reporting.
  Task      412 on host cca0021 reporting.
  Task      413 on host cca0021 reporting.
  Task      414 on host cca0021 reporting.
  Task      415 on host cca0021 reporting.
  Task      416 on host cca0021 reporting.
  Task      417 on host cca0021 reporting.
  Task      418 on host cca0021 reporting.
  Task      419 on host cca0021 reporting.
  Task      420 on host cca0021 reporting.
  Task      421 on host cca0021 reporting.
  Task      422 on host cca0021 reporting.
  Task      423 on host cca0021 reporting.
  Task      424 on host cca0021 reporting.
  Task      425 on host cca0021 reporting.
  Task      426 on host cca0021 reporting.
  Task      427 on host cca0021 reporting.
  Task      428 on host cca0021 reporting.
  Task      429 on host cca0021 reporting.
  Task      430 on host cca0021 reporting.
  Task      431 on host cca0021 reporting.
  Task      432 on host cca0021 reporting.
  Task      433 on host cca0021 reporting.
  Task      434 on host cca0021 reporting.
  Task      435 on host cca0021 reporting.
  Task      436 on host cca0021 reporting.
  Task      437 on host cca0021 reporting.
  Task      438 on host cca0021 reporting.
  Task      439 on host cca0021 reporting.
  Task      440 on host cca0021 reporting.
  Task      441 on host cca0021 reporting.
  Task      442 on host cca0021 reporting.
  Task      443 on host cca0021 reporting.
  Task      444 on host cca0021 reporting.
  Task      445 on host cca0021 reporting.
  Task      446 on host cca0021 reporting.
  Task      447 on host cca0021 reporting.
  Task      448 on host cca0024 reporting.
  Task      449 on host cca0024 reporting.
  Task      450 on host cca0024 reporting.
  Task      451 on host cca0024 reporting.
  Task      452 on host cca0024 reporting.
  Task      453 on host cca0024 reporting.
  Task      454 on host cca0024 reporting.
  Task      455 on host cca0024 reporting.
  Task      456 on host cca0024 reporting.
  Task      457 on host cca0024 reporting.
  Task      458 on host cca0024 reporting.
  Task      459 on host cca0024 reporting.
  Task      460 on host cca0024 reporting.
  Task      461 on host cca0024 reporting.
  Task      462 on host cca0024 reporting.
  Task      463 on host cca0024 reporting.
  Task      464 on host cca0024 reporting.
  Task      465 on host cca0024 reporting.
  Task      466 on host cca0024 reporting.
  Task      467 on host cca0024 reporting.
  Task      468 on host cca0024 reporting.
  Task      469 on host cca0024 reporting.
  Task      470 on host cca0024 reporting.
  Task      471 on host cca0024 reporting.
  Task      472 on host cca0024 reporting.
  Task      473 on host cca0024 reporting.
  Task      474 on host cca0024 reporting.
  Task      475 on host cca0024 reporting.
  Task      476 on host cca0024 reporting.
  Task      477 on host cca0024 reporting.
  Task      478 on host cca0024 reporting.
  Task      479 on host cca0024 reporting.
  Task      480 on host cca0024 reporting.
  Task      481 on host cca0024 reporting.
  Task      482 on host cca0024 reporting.
  Task      483 on host cca0024 reporting.
  Task      484 on host cca0024 reporting.
  Task      485 on host cca0024 reporting.
  Task      486 on host cca0024 reporting.
  Task      487 on host cca0024 reporting.
  Task      488 on host cca0024 reporting.
  Task      489 on host cca0024 reporting.
  Task      490 on host cca0024 reporting.
  Task      491 on host cca0024 reporting.
  Task      492 on host cca0024 reporting.
  Task      493 on host cca0024 reporting.
  Task      494 on host cca0024 reporting.
  Task      495 on host cca0024 reporting.
  Task      496 on host cca0024 reporting.
  Task      497 on host cca0024 reporting.
  Task      498 on host cca0024 reporting.
  Task      499 on host cca0024 reporting.
  Task      500 on host cca0024 reporting.
  Task      501 on host cca0024 reporting.
  Task      502 on host cca0024 reporting.
  Task      503 on host cca0024 reporting.
  Task      504 on host cca0024 reporting.
  Task      505 on host cca0024 reporting.
  Task      506 on host cca0024 reporting.
  Task      507 on host cca0024 reporting.
  Task      508 on host cca0024 reporting.
  Task      509 on host cca0024 reporting.
  Task      510 on host cca0024 reporting.
  Task      511 on host cca0024 reporting.
  Task      512 on host cca0032 reporting.
  Task      513 on host cca0032 reporting.
  Task      514 on host cca0032 reporting.
  Task      515 on host cca0032 reporting.
  Task      516 on host cca0032 reporting.
  Task      517 on host cca0032 reporting.
  Task      518 on host cca0032 reporting.
  Task      519 on host cca0032 reporting.
  Task      520 on host cca0032 reporting.
  Task      521 on host cca0032 reporting.
  Task      522 on host cca0032 reporting.
  Task      523 on host cca0032 reporting.
  Task      524 on host cca0032 reporting.
  Task      525 on host cca0032 reporting.
  Task      526 on host cca0032 reporting.
  Task      527 on host cca0032 reporting.
  Task      528 on host cca0032 reporting.
  Task      529 on host cca0032 reporting.
  Task      530 on host cca0032 reporting.
  Task      531 on host cca0032 reporting.
  Task      532 on host cca0032 reporting.
  Task      533 on host cca0032 reporting.
  Task      534 on host cca0032 reporting.
  Task      535 on host cca0032 reporting.
  Task      536 on host cca0032 reporting.
  Task      537 on host cca0032 reporting.
  Task      538 on host cca0032 reporting.
  Task      539 on host cca0032 reporting.
  Task      540 on host cca0032 reporting.
  Task      541 on host cca0032 reporting.
  Task      542 on host cca0032 reporting.
  Task      543 on host cca0032 reporting.
  Task      544 on host cca0032 reporting.
  Task      545 on host cca0032 reporting.
  Task      546 on host cca0032 reporting.
  Task      547 on host cca0032 reporting.
  Task      548 on host cca0032 reporting.
  Task      549 on host cca0032 reporting.
  Task      550 on host cca0032 reporting.
  Task      551 on host cca0032 reporting.
  Task      552 on host cca0032 reporting.
  Task      553 on host cca0032 reporting.
  Task      554 on host cca0032 reporting.
  Task      555 on host cca0032 reporting.
  Task      556 on host cca0032 reporting.
  Task      557 on host cca0032 reporting.
  Task      558 on host cca0032 reporting.
  Task      559 on host cca0032 reporting.
  Task      560 on host cca0032 reporting.
  Task      561 on host cca0032 reporting.
  Task      562 on host cca0032 reporting.
  Task      563 on host cca0032 reporting.
  Task      564 on host cca0032 reporting.
  Task      565 on host cca0032 reporting.
  Task      566 on host cca0032 reporting.
  Task      567 on host cca0032 reporting.
  Task      568 on host cca0032 reporting.
  Task      569 on host cca0032 reporting.
  Task      570 on host cca0032 reporting.
  Task      571 on host cca0032 reporting.
  Task      572 on host cca0032 reporting.
  Task      573 on host cca0032 reporting.
  Task      574 on host cca0032 reporting.
  Task      575 on host cca0032 reporting.
  Task      576 on host cca0039 reporting.
  Task      577 on host cca0039 reporting.
  Task      578 on host cca0039 reporting.
  Task      579 on host cca0039 reporting.
  Task      580 on host cca0039 reporting.
  Task      581 on host cca0039 reporting.
  Task      582 on host cca0039 reporting.
  Task      583 on host cca0039 reporting.
  Task      584 on host cca0039 reporting.
  Task      585 on host cca0039 reporting.
  Task      586 on host cca0039 reporting.
  Task      587 on host cca0039 reporting.
  Task      588 on host cca0039 reporting.
  Task      589 on host cca0039 reporting.
  Task      590 on host cca0039 reporting.
  Task      591 on host cca0039 reporting.
  Task      592 on host cca0039 reporting.
  Task      593 on host cca0039 reporting.
  Task      594 on host cca0039 reporting.
  Task      595 on host cca0039 reporting.
  Task      596 on host cca0039 reporting.
  Task      597 on host cca0039 reporting.
  Task      598 on host cca0039 reporting.
  Task      599 on host cca0039 reporting.
  Task      600 on host cca0039 reporting.
  Task      601 on host cca0039 reporting.
  Task      602 on host cca0039 reporting.
  Task      603 on host cca0039 reporting.
  Task      604 on host cca0039 reporting.
  Task      605 on host cca0039 reporting.
  Task      606 on host cca0039 reporting.
  Task      607 on host cca0039 reporting.
  Task      608 on host cca0039 reporting.
  Task      609 on host cca0039 reporting.
  Task      610 on host cca0039 reporting.
  Task      611 on host cca0039 reporting.
  Task      612 on host cca0039 reporting.
  Task      613 on host cca0039 reporting.
  Task      614 on host cca0039 reporting.
  Task      615 on host cca0039 reporting.
  Task      616 on host cca0039 reporting.
  Task      617 on host cca0039 reporting.
  Task      618 on host cca0039 reporting.
  Task      619 on host cca0039 reporting.
  Task      620 on host cca0039 reporting.
  Task      621 on host cca0039 reporting.
  Task      622 on host cca0039 reporting.
  Task      623 on host cca0039 reporting.
  Task      624 on host cca0039 reporting.
  Task      625 on host cca0039 reporting.
  Task      626 on host cca0039 reporting.
  Task      627 on host cca0039 reporting.
  Task      628 on host cca0039 reporting.
  Task      629 on host cca0039 reporting.
  Task      630 on host cca0039 reporting.
  Task      631 on host cca0039 reporting.
  Task      632 on host cca0039 reporting.
  Task      633 on host cca0039 reporting.
  Task      634 on host cca0039 reporting.
  Task      635 on host cca0039 reporting.
  Task      636 on host cca0039 reporting.
  Task      637 on host cca0039 reporting.
  Task      638 on host cca0039 reporting.
  Task      639 on host cca0039 reporting.

  Obtaining array dimensions for all initial allocations:
  
  -----------------------------------------------------------------------
  Parsing control.in (first pass over file, find array dimensions only).
  The contents of control.in will be repeated verbatim below
  unless switched off by setting 'verbatim_writeout .false.' .
  in the first line of control.in .
  -----------------------------------------------------------------------
  
  #===============================================================================
  # FHI-aims file: ./control.in
  # Created using the Atomic Simulation Environment (ASE)
  # Sun Mar 16 10:03:20 2025
  #===============================================================================
  compute_forces                     .true.
  xc                                 pbe0
  k_grid                             3 4 7
  relativistic                       atomic_zora scalar
  occupation_type                    gaussian 0.1
  plus_u_petukhov_mixing             1
  plus_u_matrix_control              True
  sc_accuracy_etot                   1e-06
  sc_accuracy_eev                    0.001
  sc_accuracy_rho                    1e-06
  sc_accuracy_forces                 0.0001
  #===============================================================================
  
  ################################################################################
  #
  #  FHI-aims code project
  #  VB, Fritz-Haber Institut, 2009
  #
  #  Suggested "light" defaults for Li atom (to be pasted into control.in file)
  #  Be sure to double-check any results obtained with these settings for post-processing,
  #  e.g., with the "tight" defaults and larger basis sets.
  #
  ################################################################################
    species        Li
  #     global species definitions
      nucleus             3
      mass                6.941
  #
      l_hartree           4
  #
      cut_pot             3.5  1.5  1.0
      basis_dep_cutoff    1e-4
  #
      radial_base         29 5.0
      radial_multiplier   1
      angular_grids       specified
        division   0.4484  110
        division   0.5659  194
        division   0.6315  302
  #      division   0.6662  434
  #      division   0.8186  590
  #      division   0.9037  770
  #      division   6.2760  974
  #      outer_grid   974
        outer_grid   302
  ################################################################################
  #
  #  Definition of "minimal" basis
  #
  ################################################################################
  #     valence basis states
      valence      2  s   1.
  #     ion occupancy
      ion_occ      1  s   2.
  ################################################################################
  #
  #  Suggested additional basis functions. For production calculations,
  #  uncomment them one after another (the most important basis functions are
  #  listed first).
  #
  #  Constructed for dimers: 1.80 A, 2.25 A, 2.75 A, 3.50 A, 4.50 A
  #
  ################################################################################
  #  "First tier" - improvements: -189.23 meV to -6.35 meV
       hydro 2 p 1.6
       hydro 2 s 2
       hydro 3 d 2.6
  #  "Second tier" - improvements: -4.69 meV to -0.41 meV
  #     hydro 3 p 4.6
  #     hydro 2 p 1.8
  #     hydro 3 s 6.2
  #     hydro 4 d 4.7
  #     hydro 4 f 4.1
  #  "Third tier" - improvements: -0.20 meV to -0.15 meV
  #     hydro 4 d 0.95
  #     hydro 3 p 6.2
  #     hydro 3 s 1.7
  #  Further functions, listed for completeness
  #     VB: The following functions are only listed for completeness; test very
  #         carefully before any kind of production use. From the point of view
  #         of the basis construction, their main role is to fill up space,
  #         and they are solely determined by the location of the cutoff potential.
  #     hydro 3 p 0.1  # -0.15 meV
  #     hydro 4 d 5    # -0.12 meV
  #     hydro 4 f 0.1  # -0.14 meV
  #     hydro 5 g 0.1  # -0.06 meV
  
  
  ################################################################################
  #
  #  FHI-aims code project
  #  VB, Fritz-Haber Institut, 2009
  #
  #  Suggested "light" defaults for Fe atom (to be pasted into control.in file)
  #  Be sure to double-check any results obtained with these settings for post-processing,
  #  e.g., with the "tight" defaults and larger basis sets.
  #
  ################################################################################
    species        Fe
  #     global species definitions
      nucleus             26
      mass                55.845
  #
      l_hartree           4
  #
      cut_pot             3.5          1.5  1.0
      basis_dep_cutoff    1e-4
  #
      radial_base         51 5.0
      radial_multiplier   1
      angular_grids       specified
        division   0.4337   50
        division   0.8154  110
        division   1.1046  194
        division   1.3713  302
  #      division   1.5424  434
  #      division   1.7365  590
  #      division   1.9587  770
  #      division   1.9990  974
  #      division   2.4139 1202
  #      outer_grid  1202
        outer_grid  302
  ################################################################################
  #
  #  Definition of "minimal" basis
  #
  ################################################################################
  #     valence basis states
      valence      4  s   2.
      valence      3  p   6.
      valence      3  d   6.
  #     ion occupancy
      ion_occ      4  s   1.
      ion_occ      3  p   6.
      ion_occ      3  d   5.
  ################################################################################
  #
  #  Suggested additional basis functions. For production calculations,
  #  uncomment them one after another (the most important basis functions are
  #  listed first).
  #
  #  Constructed for dimers: 1.45 A, 1.725 A, 2.25 A, 3.00 A, 4.00 A
  #
  ################################################################################
  #  "First tier" - improvements: -300.53 meV to -10.50 meV
       hydro 4 f 9.4
       hydro 2 p 2.2
  #     hydro 5 g 12.4
       hydro 3 d 3.1
       ionic 4 s auto
  #  "Second tier" - improvements: -16.31 meV to -0.65 meV
  #     hydro 3 d 6.2
  #     hydro 6 h 19.2
  #     hydro 4 f 15.2
  #     hydro 4 f 6.6
  #     hydro 3 p 3
  #     hydro 5 g 13.2
  #     hydro 1 s 0.65
  #  "Third tier" - improvements: -1.60 meV to -0.10 meV
  #     hydro 4 d 7.8
  #     hydro 4 p 19.6
  #     hydro 4 d 10.4
  #     ionic 4 p auto
  #     hydro 6 h 17.6
  #     hydro 5 f 27.2
  #     hydro 4 s 4.8
  #  "Fourth tier": improvements -0.13 meV and below
  #     hydro 5 f 12
  #     hydro 5 g 10.4
  #     hydro 5 p 8.4
  #     hydro 4 d 14.8
  #     hydro 2 s 1.9
  plus_u 3 d 0
  ################################################################################
  #
  #  FHI-aims code project
  #  VB, Fritz-Haber Institut, 2010
  #
  #  Suggested "light" defaults for P atom (to be pasted into control.in file)
  #  Be sure to double-check any results obtained with these settings for post-processing,
  #  e.g., with the "tight" defaults and larger basis sets.
  #
  #  2020/09/08 Added f function to "light" after reinspection of Delta test outcomes.
  #             This was done for all of Al-Cl and is a tricky decision since it makes
  #             "light" calculations measurably more expensive for these elements.
  #             Nevertheless, outcomes for P, S, Cl (and to some extent, Si) appear
  #             to justify this choice.
  #
  ################################################################################
    species        P
  #     global species definitions
      nucleus             15
      mass                30.973762
  #
      l_hartree           4
  #
      cut_pot             3.5          1.5  1.0
      basis_dep_cutoff    1e-4
  #
      radial_base         43 5.0
      radial_multiplier   1
      angular_grids       specified
        division   0.5527   50
        division   0.8801  110
        division   1.1447  194
        division   1.3165  302
  #      division   1.4113  434
  #      division   1.4781  590
  #      division   1.5482  770
  #      division   1.5845  974
  #      division   2.2606 1202
        outer_grid  302
  ################################################################################
  #
  #  Definition of "minimal" basis
  #
  ################################################################################
  #     valence basis states
      valence      3  s   2.
      valence      3  p   3.
  #     ion occupancy
      ion_occ      3  s   1.
      ion_occ      3  p   2.
  ################################################################################
  #
  #  Suggested additional basis functions. For production calculations,
  #  uncomment them one after another (the most important basis functions are
  #  listed first).
  #
  #  Constructed for dimers: 1.625 A, 1.875 A, 2.5 A, 3.25 A, 4.0 A
  #
  ################################################################################
  #  "First tier" - improvements: -726.20 meV to -35.91 meV
       ionic 3 d auto
       ionic 3 p auto
       hydro 4 f 6.2
  #     hydro 5 g 8.6
       ionic 3 s auto
  #  "Second tier" - improvements: -16.02 meV to -1.71 meV
  #     hydro 4 d 6.2
  #     hydro 4 p 9.2
  #     hydro 5 f 9.8
  #     hydro 1 s 0.7
  #     hydro 5 g 13.2
  #  "Third tier" - improvements: -1.82 meV to -0.20 meV
  #     hydro 3 p 2.5
  #     hydro 4 d 6.4
  #     hydro 5 f 11.2
  #     hydro 2 s 1.5
  #  "Fourth tier" - improvements: -0.91 meV to -0.17 meV
  #     hydro 3 d 16.8
  #     hydro 5 g 18
  #     hydro 4 p 4.5
  #     hydro 3 s 2.1
  #  Further basis functions that fell out of the optimization - < -0.09 meV
  #     hydro 4 p 10.4
  #     hydro 4 d 17.6
  #     hydro 4 s 11.2
  ################################################################################
  #
  #  FHI-aims code project
  #  VB, Fritz-Haber Institut, 2009
  #
  #  Suggested "light" defaults for O atom (to be pasted into control.in file)
  #  Be sure to double-check any results obtained with these settings for post-processing,
  #  e.g., with the "tight" defaults and larger basis sets.
  #
  ################################################################################
    species        O
  #     global species definitions
      nucleus             8
      mass                15.9994
  #
      l_hartree           4
  #
      cut_pot             3.5  1.5  1.0
      basis_dep_cutoff    1e-4
  #
      radial_base         36 5.0
      radial_multiplier   1
       angular_grids specified
        division   0.2659   50
        division   0.4451  110
        division   0.6052  194
        division   0.7543  302
  #      division   0.8014  434
  #      division   0.8507  590
  #      division   0.8762  770
  #      division   0.9023  974
  #      division   1.2339 1202
  #      outer_grid 974
        outer_grid 302
  ################################################################################
  #
  #  Definition of "minimal" basis
  #
  ################################################################################
  #     valence basis states
      valence      2  s   2.
      valence      2  p   4.
  #     ion occupancy
      ion_occ      2  s   1.
      ion_occ      2  p   3.
  ################################################################################
  #
  #  Suggested additional basis functions. For production calculations,
  #  uncomment them one after another (the most important basis functions are
  #  listed first).
  #
  #  Constructed for dimers: 1.0 A, 1.208 A, 1.5 A, 2.0 A, 3.0 A
  #
  ################################################################################
  #  "First tier" - improvements: -699.05 meV to -159.38 meV
       hydro 2 p 1.8
       hydro 3 d 7.6
       hydro 3 s 6.4
  #  "Second tier" - improvements: -49.91 meV to -5.39 meV
  #     hydro 4 f 11.6
  #     hydro 3 p 6.2
  #     hydro 3 d 5.6
  #     hydro 5 g 17.6
  #     hydro 1 s 0.75
  #  "Third tier" - improvements: -2.83 meV to -0.50 meV
  #     ionic 2 p auto
  #     hydro 4 f 10.8
  #     hydro 4 d 4.7
  #     hydro 2 s 6.8
  #  "Fourth tier" - improvements: -0.40 meV to -0.12 meV
  #     hydro 3 p 5
  #     hydro 3 s 3.3
  #     hydro 5 g 15.6
  #     hydro 4 f 17.6
  #     hydro 4 d 14
  # Further basis functions - -0.08 meV and below
  #     hydro 3 s 2.1
  #     hydro 4 d 11.6
  #     hydro 3 p 16
  #     hydro 2 s 17.2
  plus_u 2 p 0
  
  -----------------------------------------------------------------------
  Completed first pass over input file control.in .
  -----------------------------------------------------------------------
  
  
  -----------------------------------------------------------------------
  Parsing geometry.in (first pass over file, find array dimensions only).
  The contents of geometry.in will be repeated verbatim below
  unless switched off by setting 'verbatim_writeout .false.' .
  in the first line of geometry.in .
  -----------------------------------------------------------------------
  
  #=======================================================
  # FHI-aims file: ./geometry.in
  # Created using the Atomic Simulation Environment (ASE)
  # Sun Mar 16 10:03:20 2025
  #=======================================================
  lattice_vector 10.3480000000000008 0.0000000000000000 0.0000000000000000
  lattice_vector 0.0000000000000000 6.0180999999999996 0.0000000000000000
  lattice_vector 0.0000000000000000 0.0000000000000000 4.6996799999999999
  atom_frac 0.4999999900987405 0.0000000205019805 0.5000000217350136 Li
  atom_frac 0.0000000079962494 0.4999999964944738 -0.0000000123566379 Li
  atom_frac 0.5000000116741016 0.4999999866118412 0.5000000117394712 Li
  atom_frac 0.0000000018427073 0.0000000064358256 0.0000000075339302 Li
  atom_frac 0.7720815695655400 0.2499999960291478 0.5094623149404652 Fe
  atom_frac 0.2720815674940978 0.2500000023105919 0.9905376917790633 Fe
  atom_frac 0.2279184275510977 0.7499999990021113 0.4905376957536003 Fe
  atom_frac 0.7279184265128100 0.7500000093784400 0.0094622861950537 Fe
  atom_frac 0.5985736080215310 0.2499999970314229 0.0787985938688206 P
  atom_frac 0.0985736005580710 0.2499999965574445 0.4212014182622569 P
  atom_frac 0.4014264002314043 0.7499999999215098 0.9212014060838009 P
  atom_frac 0.9014263945327355 0.7499999990582426 0.5787985737229796 P
  atom_frac 0.6061691216285577 0.2499999926571645 0.7522592782231686 O
  atom_frac 0.1061691176106122 0.2500000012089261 0.7477407363973040 O
  atom_frac 0.3938308716778889 0.7499999958815191 0.2477407174504969 O
  atom_frac 0.8938308845986340 0.7500000063072753 0.2522592714891442 O
  atom_frac 0.9574493608834345 0.2499999950611987 0.3118023467949391 O
  atom_frac 0.4574493563506387 0.2500000041204294 0.1881976649678520 O
  atom_frac 0.0425506441064495 0.7500000139481746 0.6881976525516393 O
  atom_frac 0.5425506365204720 0.7499999849530380 0.8118023383947192 O
  atom_frac 0.6691295846401555 0.0467912352121493 0.2231604638838881 O
  atom_frac 0.1691295832218845 0.4532087602056114 0.2768395387452737 O
  atom_frac 0.3308704068895045 0.5467912353943079 0.7768395401391520 O
  atom_frac 0.8308704112910581 0.9532087618266101 0.7231604481664416 O
  atom_frac 0.3308704205027976 0.9532087645384066 0.7768395386174544 O
  atom_frac 0.8308704236017023 0.5467912400292028 0.7231604536582409 O
  atom_frac 0.6691295856764479 0.4532087624732127 0.2231604604416265 O
  atom_frac 0.1691295847206746 0.0467912368497390 0.2768395408208438 O
  
  -----------------------------------------------------------------------
  Completed first pass over input file geometry.in .
  -----------------------------------------------------------------------
  

  Basic array size parameters:
  | Number of species                 :        4
  | Number of atoms                   :       28
  | Number of lattice vectors         :        3
  | Max. basis fn. angular momentum   :        3
  | Max. atomic/ionic basis occupied n:        4
  | Max. number of basis fn. types    :        3
  | Max. radial fns per species/type  :        7
  | Max. logarithmic grid size        :     1397
  | Max. radial integration grid size :       51
  | Max. angular integration grid size:      302
  | Max. angular grid division number :        8
  | Radial grid for Hartree potential :     1397
  | Number of spin channels           :        1
  | Max. number of (n,l) shells per species with '+U' treatment:        1

------------------------------------------------------------
          Reading file control.in.
------------------------------------------------------------
  Forces will be computed.
  XC: Using hybrid-PBE0 functionals.
  Found k-point grid:         3         4         7
  Scalar relativistic treatment of kinetic energy: on-site free-atom approximation to ZORA.
  Occupation type: Gaussian broadening, width =   0.100000E+00 eV.
  Fixing petukhov mixing factor to   1.000000000000
  Reading DFT+U occupation matrix, from file
  Convergence accuracy of total energy:  0.1000E-05
  Convergence accuracy of sum of eigenvalues:  0.1000E-02
  Convergence accuracy of self-consistent charge density:  0.1000E-05
  Convergence accuracy of forces:  0.1000E-03
 
  Reading configuration options for species Li                  .
  | Found nuclear charge :   3.0000
  | Found atomic mass :    6.94100000000000      amu
  | Found l_max for Hartree potential  :   4
  | Found cutoff potl. onset [A], width [A], scale factor :    3.50000    1.50000    1.00000
  | Threshold for basis-dependent cutoff potential is   0.100000E-03
  | Found data for basic radial integration grid :    29 points, outermost radius =    5.000 A
  | Found multiplier for basic radial grid :   1
  | Found angular grid specification: user-specified.
  | Specified grid contains     4 separate shells.
  | Check grid settings after all constraints further below.
  | Found free-atom valence shell :  2 s   1.000
  | Found free-ion valence shell :  1 s   2.000
  | Found hydrogenic basis function :  2 p   1.600
  | Found hydrogenic basis function :  2 s   2.000
  | Found hydrogenic basis function :  3 d   2.600
  Species Li                  : Missing cutoff potential type.
  Defaulting to exp(1/x)/(1-x)^2 type cutoff potential.
  Species Li: No 'logarithmic' tag. Using default grid for free atom:
  | Default logarithmic grid data [bohr] : 0.1000E-03 0.1000E+03 0.1012E+01
  Species Li: On-site basis accuracy parameter (for Gram-Schmidt orthonormalisation) not specified.
  Using default value basis_acc =  0.1000000E-03.
  Species Li                  : Using default innermost maximum threshold i_radial=  2 for radial functions.
  Species Li                  : Default cutoff onset for free atom density etc. : 0.35000000E+01 AA.
  Species Li                  : Basic radial grid will be enhanced according to radial_multiplier =   1, to contain    29 grid points.
 
  Reading configuration options for species Fe                  .
  | Found nuclear charge :  26.0000
  | Found atomic mass :    55.8450000000000      amu
  | Found l_max for Hartree potential  :   4
  | Found cutoff potl. onset [A], width [A], scale factor :    3.50000    1.50000    1.00000
  | Threshold for basis-dependent cutoff potential is   0.100000E-03
  | Found data for basic radial integration grid :    51 points, outermost radius =    5.000 A
  | Found multiplier for basic radial grid :   1
  | Found angular grid specification: user-specified.
  | Specified grid contains     5 separate shells.
  | Check grid settings after all constraints further below.
  | Found free-atom valence shell :  4 s   2.000
  | Found free-atom valence shell :  3 p   6.000
  | Found free-atom valence shell :  3 d   6.000
  | Found free-ion valence shell :  4 s   1.000
  | Found free-ion valence shell :  3 p   6.000
  | Found free-ion valence shell :  3 d   5.000
  | Found hydrogenic basis function :  4 f   9.400
  | Found hydrogenic basis function :  2 p   2.200
  | Found hydrogenic basis function :  3 d   3.100
  | Found ionic basis function :  4 s , default cutoff radius.
  | Found request for '+U' treatment for  3 d shell, U =     0.000000 eV.
  Species Fe                  : Missing cutoff potential type.
  Defaulting to exp(1/x)/(1-x)^2 type cutoff potential.
  Species Fe: No 'logarithmic' tag. Using default grid for free atom:
  | Default logarithmic grid data [bohr] : 0.1000E-03 0.1000E+03 0.1012E+01
  | Will include ionic basis functions of  2.0-fold positive Fe                   ion.
  Species Fe: On-site basis accuracy parameter (for Gram-Schmidt orthonormalisation) not specified.
  Using default value basis_acc =  0.1000000E-03.
  Species Fe                  : Using default innermost maximum threshold i_radial=  2 for radial functions.
  Species Fe                  : Default cutoff onset for free atom density etc. : 0.35000000E+01 AA.
  Species Fe                  : Basic radial grid will be enhanced according to radial_multiplier =   1, to contain    51 grid points.
 
  Reading configuration options for species P                   .
  | Found nuclear charge :  15.0000
  | Found atomic mass :    30.9737620000000      amu
  | Found l_max for Hartree potential  :   4
  | Found cutoff potl. onset [A], width [A], scale factor :    3.50000    1.50000    1.00000
  | Threshold for basis-dependent cutoff potential is   0.100000E-03
  | Found data for basic radial integration grid :    43 points, outermost radius =    5.000 A
  | Found multiplier for basic radial grid :   1
  | Found angular grid specification: user-specified.
  | Specified grid contains     5 separate shells.
  | Check grid settings after all constraints further below.
  | Found free-atom valence shell :  3 s   2.000
  | Found free-atom valence shell :  3 p   3.000
  | Found free-ion valence shell :  3 s   1.000
  | Found free-ion valence shell :  3 p   2.000
  | Found ionic basis function :  3 d , default cutoff radius.
  | Found ionic basis function :  3 p , default cutoff radius.
  | Found hydrogenic basis function :  4 f   6.200
  | Found ionic basis function :  3 s , default cutoff radius.
  Species P                   : Missing cutoff potential type.
  Defaulting to exp(1/x)/(1-x)^2 type cutoff potential.
  Species P : No 'logarithmic' tag. Using default grid for free atom:
  | Default logarithmic grid data [bohr] : 0.1000E-03 0.1000E+03 0.1012E+01
  | Will include ionic basis functions of  2.0-fold positive P                    ion.
  Species P : On-site basis accuracy parameter (for Gram-Schmidt orthonormalisation) not specified.
  Using default value basis_acc =  0.1000000E-03.
  Species P                   : Using default innermost maximum threshold i_radial=  2 for radial functions.
  Species P                   : Default cutoff onset for free atom density etc. : 0.35000000E+01 AA.
  Species P                   : Basic radial grid will be enhanced according to radial_multiplier =   1, to contain    43 grid points.
 
  Reading configuration options for species O                   .
  | Found nuclear charge :   8.0000
  | Found atomic mass :    15.9994000000000      amu
  | Found l_max for Hartree potential  :   4
  | Found cutoff potl. onset [A], width [A], scale factor :    3.50000    1.50000    1.00000
  | Threshold for basis-dependent cutoff potential is   0.100000E-03
  | Found data for basic radial integration grid :    36 points, outermost radius =    5.000 A
  | Found multiplier for basic radial grid :   1
  | Found angular grid specification: user-specified.
  | Specified grid contains     5 separate shells.
  | Check grid settings after all constraints further below.
  | Found free-atom valence shell :  2 s   2.000
  | Found free-atom valence shell :  2 p   4.000
  | Found free-ion valence shell :  2 s   1.000
  | Found free-ion valence shell :  2 p   3.000
  | Found hydrogenic basis function :  2 p   1.800
  | Found hydrogenic basis function :  3 d   7.600
  | Found hydrogenic basis function :  3 s   6.400
  | Found request for '+U' treatment for  2 p shell, U =     0.000000 eV.
  Species O                   : Missing cutoff potential type.
  Defaulting to exp(1/x)/(1-x)^2 type cutoff potential.
  Species O : No 'logarithmic' tag. Using default grid for free atom:
  | Default logarithmic grid data [bohr] : 0.1000E-03 0.1000E+03 0.1012E+01
  Species O : On-site basis accuracy parameter (for Gram-Schmidt orthonormalisation) not specified.
  Using default value basis_acc =  0.1000000E-03.
  Species O                   : Using default innermost maximum threshold i_radial=  2 for radial functions.
  Species O                   : Default cutoff onset for free atom density etc. : 0.35000000E+01 AA.
  Species O                   : Basic radial grid will be enhanced according to radial_multiplier =   1, to contain    36 grid points.
 
  Finished reading input file 'control.in'.
 
------------------------------------------------------------


------------------------------------------------------------
          Reading geometry description geometry.in.
------------------------------------------------------------
  | The smallest distance between any two atoms is         1.53664167 AA.
  | The first atom of this pair is atom number                     12 .
  | The second atom of this pair is atom number                    16 .
  | Wigner-Seitz cell of the first atom image           0     0     1 .
  | (The Wigner-Seitz cell of the second atom is 0 0 0  by definition.)

  Symmetry information by spglib:
  | Precision set to  0.1E-04
  | Number of Operations  : 8
  | Space group           : 62
  | International         : Pnma     di
  | Schoenflies           : D2h^16
  Input structure read successfully.
  The structure contains       28 atoms,  and a total of        304.000 electrons.

  Input geometry:
  | Unit cell:
  |       10.34800000        0.00000000        0.00000000
  |        0.00000000        6.01810000        0.00000000
  |        0.00000000        0.00000000        4.69968000
  | Atomic structure:
  |       Atom                x [A]            y [A]            z [A]
  |    1: Species Li            5.17399990        0.00000012        2.34984010
  |    2: Species Li            0.00000008        3.00904998       -0.00000006
  |    3: Species Li            5.17400012        3.00904992        2.34984006
  |    4: Species Li            0.00000002        0.00000004        0.00000004
  |    5: Species Fe            7.98950008        1.50452498        2.39430985
  |    6: Species Fe            2.81550006        1.50452501        4.65521018
  |    7: Species Fe            2.35849989        4.51357499        2.30537020
  |    8: Species Fe            7.53249988        4.51357506        0.04446972
  |    9: Species P             6.19403970        1.50452498        0.37032818
  |   10: Species P             1.02003962        1.50452498        1.97951188
  |   11: Species P             4.15396039        4.51357500        4.32935182
  |   12: Species P             9.32796033        4.51357499        2.72016808
  |   13: Species O             6.27263807        1.50452496        3.53537788
  |   14: Species O             1.09863803        1.50452501        3.51414218
  |   15: Species O             4.07536186        4.51357498        1.16430209
  |   16: Species O             9.24936199        4.51357504        1.18553785
  |   17: Species O             9.90768599        1.50452497        1.46537125
  |   18: Species O             4.73368594        1.50452502        0.88446880
  |   19: Species O             0.44031407        4.51357508        3.23430874
  |   20: Species O             5.61431399        4.51357491        3.81521121
  |   21: Species O             6.92415294        0.28159433        1.04878277
  |   22: Species O             1.75015293        2.72745564        1.30105724
  |   23: Species O             3.42384697        3.29064433        3.65089725
  |   24: Species O             8.59784702        5.73650565        3.39862270
  |   25: Species O             3.42384711        5.73650567        3.65089724
  |   26: Species O             8.59784714        3.29064436        3.39862272
  |   27: Species O             6.92415295        2.72745565        1.04878275
  |   28: Species O             1.75015294        0.28159434        1.30105725

  Lattice parameters for 3D lattice (in Angstroms) :    10.348000    6.018100    4.699680
  Angle(s) between unit vectors (in degrees)       :    90.000000   90.000000   90.000000


  Quantities derived from the lattice vectors (in Angstrom^-1):
  | Reciprocal lattice vector 1:  0.607188  0.000000  0.000000
  | Reciprocal lattice vector 2:  0.000000  1.044048  0.000000
  | Reciprocal lattice vector 3:  0.000000  0.000000  1.336939
  | Unit cell volume                               :   0.292674E+03  Angstrom^3

  Fractional coordinates:
                         L1                L2                L3
       atom_frac         0.49999999        0.00000002        0.50000002  Li
       atom_frac         0.00000001        0.50000000       -0.00000001  Li
       atom_frac         0.50000001        0.49999999        0.50000001  Li
       atom_frac         0.00000000        0.00000001        0.00000001  Li
       atom_frac         0.77208157        0.25000000        0.50946231  Fe
       atom_frac         0.27208157        0.25000000        0.99053769  Fe
       atom_frac         0.22791843        0.75000000        0.49053770  Fe
       atom_frac         0.72791843        0.75000001        0.00946229  Fe
       atom_frac         0.59857361        0.25000000        0.07879859  P
       atom_frac         0.09857360        0.25000000        0.42120142  P
       atom_frac         0.40142640        0.75000000        0.92120141  P
       atom_frac         0.90142639        0.75000000        0.57879857  P
       atom_frac         0.60616912        0.24999999        0.75225928  O
       atom_frac         0.10616912        0.25000000        0.74774074  O
       atom_frac         0.39383087        0.75000000        0.24774072  O
       atom_frac         0.89383088        0.75000001        0.25225927  O
       atom_frac         0.95744936        0.25000000        0.31180235  O
       atom_frac         0.45744936        0.25000000        0.18819766  O
       atom_frac         0.04255064        0.75000001        0.68819765  O
       atom_frac         0.54255064        0.74999998        0.81180234  O
       atom_frac         0.66912958        0.04679124        0.22316046  O
       atom_frac         0.16912958        0.45320876        0.27683954  O
       atom_frac         0.33087041        0.54679124        0.77683954  O
       atom_frac         0.83087041        0.95320876        0.72316045  O
       atom_frac         0.33087042        0.95320876        0.77683954  O
       atom_frac         0.83087042        0.54679124        0.72316045  O
       atom_frac         0.66912959        0.45320876        0.22316046  O
       atom_frac         0.16912958        0.04679124        0.27683954  O

 
  Finished reading input file 'geometry.in'.
 

 
  Consistency checks for stacksize environment parameter are next.
 
  | Maximum stacksize for task 0: unlimited
  | Maximum stacksize for task 1: unlimited
  | Maximum stacksize for task 2: unlimited
  | Maximum stacksize for task 3: unlimited
  | Maximum stacksize for task 4: unlimited
  | Maximum stacksize for task 5: unlimited
  | Maximum stacksize for task 6: unlimited
  | Maximum stacksize for task 7: unlimited
  | Maximum stacksize for task 8: unlimited
  | Maximum stacksize for task 9: unlimited
  | Maximum stacksize for task 10: unlimited
  | Maximum stacksize for task 11: unlimited
  | Maximum stacksize for task 12: unlimited
  | Maximum stacksize for task 13: unlimited
  | Maximum stacksize for task 14: unlimited
  | Maximum stacksize for task 15: unlimited
  | Maximum stacksize for task 16: unlimited
  | Maximum stacksize for task 17: unlimited
  | Maximum stacksize for task 18: unlimited
  | Maximum stacksize for task 19: unlimited
  | Maximum stacksize for task 20: unlimited
  | Maximum stacksize for task 21: unlimited
  | Maximum stacksize for task 22: unlimited
  | Maximum stacksize for task 23: unlimited
  | Maximum stacksize for task 24: unlimited
  | Maximum stacksize for task 25: unlimited
  | Maximum stacksize for task 26: unlimited
  | Maximum stacksize for task 27: unlimited
  | Maximum stacksize for task 28: unlimited
  | Maximum stacksize for task 29: unlimited
  | Maximum stacksize for task 30: unlimited
  | Maximum stacksize for task 31: unlimited
  | Maximum stacksize for task 32: unlimited
  | Maximum stacksize for task 33: unlimited
  | Maximum stacksize for task 34: unlimited
  | Maximum stacksize for task 35: unlimited
  | Maximum stacksize for task 36: unlimited
  | Maximum stacksize for task 37: unlimited
  | Maximum stacksize for task 38: unlimited
  | Maximum stacksize for task 39: unlimited
  | Maximum stacksize for task 40: unlimited
  | Maximum stacksize for task 41: unlimited
  | Maximum stacksize for task 42: unlimited
  | Maximum stacksize for task 43: unlimited
  | Maximum stacksize for task 44: unlimited
  | Maximum stacksize for task 45: unlimited
  | Maximum stacksize for task 46: unlimited
  | Maximum stacksize for task 47: unlimited
  | Maximum stacksize for task 48: unlimited
  | Maximum stacksize for task 49: unlimited
  | Maximum stacksize for task 50: unlimited
  | Maximum stacksize for task 51: unlimited
  | Maximum stacksize for task 52: unlimited
  | Maximum stacksize for task 53: unlimited
  | Maximum stacksize for task 54: unlimited
  | Maximum stacksize for task 55: unlimited
  | Maximum stacksize for task 56: unlimited
  | Maximum stacksize for task 57: unlimited
  | Maximum stacksize for task 58: unlimited
  | Maximum stacksize for task 59: unlimited
  | Maximum stacksize for task 60: unlimited
  | Maximum stacksize for task 61: unlimited
  | Maximum stacksize for task 62: unlimited
  | Maximum stacksize for task 63: unlimited
  | Maximum stacksize for task 64: unlimited
  | Maximum stacksize for task 65: unlimited
  | Maximum stacksize for task 66: unlimited
  | Maximum stacksize for task 67: unlimited
  | Maximum stacksize for task 68: unlimited
  | Maximum stacksize for task 69: unlimited
  | Maximum stacksize for task 70: unlimited
  | Maximum stacksize for task 71: unlimited
  | Maximum stacksize for task 72: unlimited
  | Maximum stacksize for task 73: unlimited
  | Maximum stacksize for task 74: unlimited
  | Maximum stacksize for task 75: unlimited
  | Maximum stacksize for task 76: unlimited
  | Maximum stacksize for task 77: unlimited
  | Maximum stacksize for task 78: unlimited
  | Maximum stacksize for task 79: unlimited
  | Maximum stacksize for task 80: unlimited
  | Maximum stacksize for task 81: unlimited
  | Maximum stacksize for task 82: unlimited
  | Maximum stacksize for task 83: unlimited
  | Maximum stacksize for task 84: unlimited
  | Maximum stacksize for task 85: unlimited
  | Maximum stacksize for task 86: unlimited
  | Maximum stacksize for task 87: unlimited
  | Maximum stacksize for task 88: unlimited
  | Maximum stacksize for task 89: unlimited
  | Maximum stacksize for task 90: unlimited
  | Maximum stacksize for task 91: unlimited
  | Maximum stacksize for task 92: unlimited
  | Maximum stacksize for task 93: unlimited
  | Maximum stacksize for task 94: unlimited
  | Maximum stacksize for task 95: unlimited
  | Maximum stacksize for task 96: unlimited
  | Maximum stacksize for task 97: unlimited
  | Maximum stacksize for task 98: unlimited
  | Maximum stacksize for task 99: unlimited
  | Maximum stacksize for task 100: unlimited
  | Maximum stacksize for task 101: unlimited
  | Maximum stacksize for task 102: unlimited
  | Maximum stacksize for task 103: unlimited
  | Maximum stacksize for task 104: unlimited
  | Maximum stacksize for task 105: unlimited
  | Maximum stacksize for task 106: unlimited
  | Maximum stacksize for task 107: unlimited
  | Maximum stacksize for task 108: unlimited
  | Maximum stacksize for task 109: unlimited
  | Maximum stacksize for task 110: unlimited
  | Maximum stacksize for task 111: unlimited
  | Maximum stacksize for task 112: unlimited
  | Maximum stacksize for task 113: unlimited
  | Maximum stacksize for task 114: unlimited
  | Maximum stacksize for task 115: unlimited
  | Maximum stacksize for task 116: unlimited
  | Maximum stacksize for task 117: unlimited
  | Maximum stacksize for task 118: unlimited
  | Maximum stacksize for task 119: unlimited
  | Maximum stacksize for task 120: unlimited
  | Maximum stacksize for task 121: unlimited
  | Maximum stacksize for task 122: unlimited
  | Maximum stacksize for task 123: unlimited
  | Maximum stacksize for task 124: unlimited
  | Maximum stacksize for task 125: unlimited
  | Maximum stacksize for task 126: unlimited
  | Maximum stacksize for task 127: unlimited
  | Maximum stacksize for task 128: unlimited
  | Maximum stacksize for task 129: unlimited
  | Maximum stacksize for task 130: unlimited
  | Maximum stacksize for task 131: unlimited
  | Maximum stacksize for task 132: unlimited
  | Maximum stacksize for task 133: unlimited
  | Maximum stacksize for task 134: unlimited
  | Maximum stacksize for task 135: unlimited
  | Maximum stacksize for task 136: unlimited
  | Maximum stacksize for task 137: unlimited
  | Maximum stacksize for task 138: unlimited
  | Maximum stacksize for task 139: unlimited
  | Maximum stacksize for task 140: unlimited
  | Maximum stacksize for task 141: unlimited
  | Maximum stacksize for task 142: unlimited
  | Maximum stacksize for task 143: unlimited
  | Maximum stacksize for task 144: unlimited
  | Maximum stacksize for task 145: unlimited
  | Maximum stacksize for task 146: unlimited
  | Maximum stacksize for task 147: unlimited
  | Maximum stacksize for task 148: unlimited
  | Maximum stacksize for task 149: unlimited
  | Maximum stacksize for task 150: unlimited
  | Maximum stacksize for task 151: unlimited
  | Maximum stacksize for task 152: unlimited
  | Maximum stacksize for task 153: unlimited
  | Maximum stacksize for task 154: unlimited
  | Maximum stacksize for task 155: unlimited
  | Maximum stacksize for task 156: unlimited
  | Maximum stacksize for task 157: unlimited
  | Maximum stacksize for task 158: unlimited
  | Maximum stacksize for task 159: unlimited
  | Maximum stacksize for task 160: unlimited
  | Maximum stacksize for task 161: unlimited
  | Maximum stacksize for task 162: unlimited
  | Maximum stacksize for task 163: unlimited
  | Maximum stacksize for task 164: unlimited
  | Maximum stacksize for task 165: unlimited
  | Maximum stacksize for task 166: unlimited
  | Maximum stacksize for task 167: unlimited
  | Maximum stacksize for task 168: unlimited
  | Maximum stacksize for task 169: unlimited
  | Maximum stacksize for task 170: unlimited
  | Maximum stacksize for task 171: unlimited
  | Maximum stacksize for task 172: unlimited
  | Maximum stacksize for task 173: unlimited
  | Maximum stacksize for task 174: unlimited
  | Maximum stacksize for task 175: unlimited
  | Maximum stacksize for task 176: unlimited
  | Maximum stacksize for task 177: unlimited
  | Maximum stacksize for task 178: unlimited
  | Maximum stacksize for task 179: unlimited
  | Maximum stacksize for task 180: unlimited
  | Maximum stacksize for task 181: unlimited
  | Maximum stacksize for task 182: unlimited
  | Maximum stacksize for task 183: unlimited
  | Maximum stacksize for task 184: unlimited
  | Maximum stacksize for task 185: unlimited
  | Maximum stacksize for task 186: unlimited
  | Maximum stacksize for task 187: unlimited
  | Maximum stacksize for task 188: unlimited
  | Maximum stacksize for task 189: unlimited
  | Maximum stacksize for task 190: unlimited
  | Maximum stacksize for task 191: unlimited
  | Maximum stacksize for task 192: unlimited
  | Maximum stacksize for task 193: unlimited
  | Maximum stacksize for task 194: unlimited
  | Maximum stacksize for task 195: unlimited
  | Maximum stacksize for task 196: unlimited
  | Maximum stacksize for task 197: unlimited
  | Maximum stacksize for task 198: unlimited
  | Maximum stacksize for task 199: unlimited
  | Maximum stacksize for task 200: unlimited
  | Maximum stacksize for task 201: unlimited
  | Maximum stacksize for task 202: unlimited
  | Maximum stacksize for task 203: unlimited
  | Maximum stacksize for task 204: unlimited
  | Maximum stacksize for task 205: unlimited
  | Maximum stacksize for task 206: unlimited
  | Maximum stacksize for task 207: unlimited
  | Maximum stacksize for task 208: unlimited
  | Maximum stacksize for task 209: unlimited
  | Maximum stacksize for task 210: unlimited
  | Maximum stacksize for task 211: unlimited
  | Maximum stacksize for task 212: unlimited
  | Maximum stacksize for task 213: unlimited
  | Maximum stacksize for task 214: unlimited
  | Maximum stacksize for task 215: unlimited
  | Maximum stacksize for task 216: unlimited
  | Maximum stacksize for task 217: unlimited
  | Maximum stacksize for task 218: unlimited
  | Maximum stacksize for task 219: unlimited
  | Maximum stacksize for task 220: unlimited
  | Maximum stacksize for task 221: unlimited
  | Maximum stacksize for task 222: unlimited
  | Maximum stacksize for task 223: unlimited
  | Maximum stacksize for task 224: unlimited
  | Maximum stacksize for task 225: unlimited
  | Maximum stacksize for task 226: unlimited
  | Maximum stacksize for task 227: unlimited
  | Maximum stacksize for task 228: unlimited
  | Maximum stacksize for task 229: unlimited
  | Maximum stacksize for task 230: unlimited
  | Maximum stacksize for task 231: unlimited
  | Maximum stacksize for task 232: unlimited
  | Maximum stacksize for task 233: unlimited
  | Maximum stacksize for task 234: unlimited
  | Maximum stacksize for task 235: unlimited
  | Maximum stacksize for task 236: unlimited
  | Maximum stacksize for task 237: unlimited
  | Maximum stacksize for task 238: unlimited
  | Maximum stacksize for task 239: unlimited
  | Maximum stacksize for task 240: unlimited
  | Maximum stacksize for task 241: unlimited
  | Maximum stacksize for task 242: unlimited
  | Maximum stacksize for task 243: unlimited
  | Maximum stacksize for task 244: unlimited
  | Maximum stacksize for task 245: unlimited
  | Maximum stacksize for task 246: unlimited
  | Maximum stacksize for task 247: unlimited
  | Maximum stacksize for task 248: unlimited
  | Maximum stacksize for task 249: unlimited
  | Maximum stacksize for task 250: unlimited
  | Maximum stacksize for task 251: unlimited
  | Maximum stacksize for task 252: unlimited
  | Maximum stacksize for task 253: unlimited
  | Maximum stacksize for task 254: unlimited
  | Maximum stacksize for task 255: unlimited
  | Maximum stacksize for task 256: unlimited
  | Maximum stacksize for task 257: unlimited
  | Maximum stacksize for task 258: unlimited
  | Maximum stacksize for task 259: unlimited
  | Maximum stacksize for task 260: unlimited
  | Maximum stacksize for task 261: unlimited
  | Maximum stacksize for task 262: unlimited
  | Maximum stacksize for task 263: unlimited
  | Maximum stacksize for task 264: unlimited
  | Maximum stacksize for task 265: unlimited
  | Maximum stacksize for task 266: unlimited
  | Maximum stacksize for task 267: unlimited
  | Maximum stacksize for task 268: unlimited
  | Maximum stacksize for task 269: unlimited
  | Maximum stacksize for task 270: unlimited
  | Maximum stacksize for task 271: unlimited
  | Maximum stacksize for task 272: unlimited
  | Maximum stacksize for task 273: unlimited
  | Maximum stacksize for task 274: unlimited
  | Maximum stacksize for task 275: unlimited
  | Maximum stacksize for task 276: unlimited
  | Maximum stacksize for task 277: unlimited
  | Maximum stacksize for task 278: unlimited
  | Maximum stacksize for task 279: unlimited
  | Maximum stacksize for task 280: unlimited
  | Maximum stacksize for task 281: unlimited
  | Maximum stacksize for task 282: unlimited
  | Maximum stacksize for task 283: unlimited
  | Maximum stacksize for task 284: unlimited
  | Maximum stacksize for task 285: unlimited
  | Maximum stacksize for task 286: unlimited
  | Maximum stacksize for task 287: unlimited
  | Maximum stacksize for task 288: unlimited
  | Maximum stacksize for task 289: unlimited
  | Maximum stacksize for task 290: unlimited
  | Maximum stacksize for task 291: unlimited
  | Maximum stacksize for task 292: unlimited
  | Maximum stacksize for task 293: unlimited
  | Maximum stacksize for task 294: unlimited
  | Maximum stacksize for task 295: unlimited
  | Maximum stacksize for task 296: unlimited
  | Maximum stacksize for task 297: unlimited
  | Maximum stacksize for task 298: unlimited
  | Maximum stacksize for task 299: unlimited
  | Maximum stacksize for task 300: unlimited
  | Maximum stacksize for task 301: unlimited
  | Maximum stacksize for task 302: unlimited
  | Maximum stacksize for task 303: unlimited
  | Maximum stacksize for task 304: unlimited
  | Maximum stacksize for task 305: unlimited
  | Maximum stacksize for task 306: unlimited
  | Maximum stacksize for task 307: unlimited
  | Maximum stacksize for task 308: unlimited
  | Maximum stacksize for task 309: unlimited
  | Maximum stacksize for task 310: unlimited
  | Maximum stacksize for task 311: unlimited
  | Maximum stacksize for task 312: unlimited
  | Maximum stacksize for task 313: unlimited
  | Maximum stacksize for task 314: unlimited
  | Maximum stacksize for task 315: unlimited
  | Maximum stacksize for task 316: unlimited
  | Maximum stacksize for task 317: unlimited
  | Maximum stacksize for task 318: unlimited
  | Maximum stacksize for task 319: unlimited
  | Maximum stacksize for task 320: unlimited
  | Maximum stacksize for task 321: unlimited
  | Maximum stacksize for task 322: unlimited
  | Maximum stacksize for task 323: unlimited
  | Maximum stacksize for task 324: unlimited
  | Maximum stacksize for task 325: unlimited
  | Maximum stacksize for task 326: unlimited
  | Maximum stacksize for task 327: unlimited
  | Maximum stacksize for task 328: unlimited
  | Maximum stacksize for task 329: unlimited
  | Maximum stacksize for task 330: unlimited
  | Maximum stacksize for task 331: unlimited
  | Maximum stacksize for task 332: unlimited
  | Maximum stacksize for task 333: unlimited
  | Maximum stacksize for task 334: unlimited
  | Maximum stacksize for task 335: unlimited
  | Maximum stacksize for task 336: unlimited
  | Maximum stacksize for task 337: unlimited
  | Maximum stacksize for task 338: unlimited
  | Maximum stacksize for task 339: unlimited
  | Maximum stacksize for task 340: unlimited
  | Maximum stacksize for task 341: unlimited
  | Maximum stacksize for task 342: unlimited
  | Maximum stacksize for task 343: unlimited
  | Maximum stacksize for task 344: unlimited
  | Maximum stacksize for task 345: unlimited
  | Maximum stacksize for task 346: unlimited
  | Maximum stacksize for task 347: unlimited
  | Maximum stacksize for task 348: unlimited
  | Maximum stacksize for task 349: unlimited
  | Maximum stacksize for task 350: unlimited
  | Maximum stacksize for task 351: unlimited
  | Maximum stacksize for task 352: unlimited
  | Maximum stacksize for task 353: unlimited
  | Maximum stacksize for task 354: unlimited
  | Maximum stacksize for task 355: unlimited
  | Maximum stacksize for task 356: unlimited
  | Maximum stacksize for task 357: unlimited
  | Maximum stacksize for task 358: unlimited
  | Maximum stacksize for task 359: unlimited
  | Maximum stacksize for task 360: unlimited
  | Maximum stacksize for task 361: unlimited
  | Maximum stacksize for task 362: unlimited
  | Maximum stacksize for task 363: unlimited
  | Maximum stacksize for task 364: unlimited
  | Maximum stacksize for task 365: unlimited
  | Maximum stacksize for task 366: unlimited
  | Maximum stacksize for task 367: unlimited
  | Maximum stacksize for task 368: unlimited
  | Maximum stacksize for task 369: unlimited
  | Maximum stacksize for task 370: unlimited
  | Maximum stacksize for task 371: unlimited
  | Maximum stacksize for task 372: unlimited
  | Maximum stacksize for task 373: unlimited
  | Maximum stacksize for task 374: unlimited
  | Maximum stacksize for task 375: unlimited
  | Maximum stacksize for task 376: unlimited
  | Maximum stacksize for task 377: unlimited
  | Maximum stacksize for task 378: unlimited
  | Maximum stacksize for task 379: unlimited
  | Maximum stacksize for task 380: unlimited
  | Maximum stacksize for task 381: unlimited
  | Maximum stacksize for task 382: unlimited
  | Maximum stacksize for task 383: unlimited
  | Maximum stacksize for task 384: unlimited
[...]
    172       0.00000           0.072603            1.97563
    173       0.00000           0.075352            2.05043
    174       0.00000           0.082680            2.24983
    175       0.00000           0.095632            2.60228
    176       0.00000           0.104640            2.84739
    177       0.00000           0.110571            3.00879
    178       0.00000           0.128454            3.49540
    179       0.00000           0.132407            3.60297
    180       0.00000           0.140531            3.82404
    181       0.00000           0.143448            3.90341
    182       0.00000           0.145937            3.97115
    183       0.00000           0.151515            4.12293
    184       0.00000           0.158715            4.31885
    185       0.00000           0.167050            4.54565
    186       0.00000           0.184124            5.01027
    187       0.00000           0.185292            5.04205
    188       0.00000           0.190761            5.19088
    189       0.00000           0.196943            5.35910
    190       0.00000           0.210348            5.72387
    191       0.00000           0.214741            5.84339
    192       0.00000           0.216632            5.89486
    193       0.00000           0.221524            6.02797
    194       0.00000           0.229541            6.24612
    195       0.00000           0.231569            6.30132
    196       0.00000           0.239940            6.52910
    197       0.00000           0.248445            6.76052
    198       0.00000           0.260289            7.08281
    199       0.00000           0.268563            7.30798
    200       0.00000           0.269296            7.32791
    201       0.00000           0.282138            7.67735
    202       0.00000           0.295263            8.03452
    203       0.00000           0.305153            8.30363
    204       0.00000           0.310207            8.44116
    205       0.00000           0.314739            8.56450
    206       0.00000           0.317082            8.62825
    207       0.00000           0.323533            8.80379
    208       0.00000           0.329604            8.96899
    209       0.00000           0.330656            8.99759
    210       0.00000           0.330990            9.00669
    211       0.00000           0.334877            9.11246
    212       0.00000           0.343519            9.34763
    213       0.00000           0.353871            9.62933
    214       0.00000           0.359429            9.78055
    215       0.00000           0.360612            9.81275
    216       0.00000           0.372697           10.14159
    217       0.00000           0.391884           10.66369
    218       0.00000           0.402321           10.94772
    219       0.00000           0.408802           11.12407
    220       0.00000           0.410122           11.16000
    221       0.00000           0.429342           11.68298
    222       0.00000           0.429545           11.68851
    223       0.00000           0.457538           12.45023
    224       0.00000           0.458225           12.46894
    225       0.00000           0.500698           13.62468
    226       0.00000           0.512144           13.93615
    227       0.00000           0.515516           14.02790
    228       0.00000           0.523696           14.25050
    229       0.00000           0.539679           14.68542
    230       0.00000           0.553680           15.06639
    231       0.00000           0.581848           15.83289
    232       0.00000           0.586720           15.96546
    233       0.00000           0.597355           16.25487
    234       0.00000           0.613359           16.69036
    235       0.00000           0.620057           16.87262
    236       0.00000           0.622456           16.93789
    237       0.00000           0.623120           16.95596
    238       0.00000           0.630789           17.16464
    239       0.00000           0.643702           17.51603
    240       0.00000           0.661897           18.01115

  What follows are estimated values for band gap, HOMO, LUMO, etc.
  | They are estimated on a discrete k-point grid and not necessarily exact.
  | For converged numbers, create a DOS and/or band structure plot on a denser k-grid.

  Highest occupied state (VBM) at     -8.85062309 eV (relative to internal zero)
  | Occupation number:      2.00000000
  | K-point:      10 at    0.000000    0.500000    0.000000 (in units of recip. lattice)

  Lowest unoccupied state (CBM) at    -3.71541648 eV (relative to internal zero)
  | Occupation number:      0.00000000
  | K-point:       5 at    0.000000    0.250000    0.000000 (in units of recip. lattice)

  ESTIMATED overall HOMO-LUMO gap:      5.13520661 eV between HOMO at k-point 10 and LUMO at k-point 5
  | This appears to be an indirect band gap.
  | Smallest direct gap :      5.15899195 eV for k_point 5 at    0.000000    0.250000    0.000000 (in units of recip. lattice)
  The gap value is above 0.2 eV. Unless you are using a very sparse k-point grid,
  this system is most likely an insulator or a semiconductor.

  | Chemical Potential                          :    -4.16726719 eV
  | Note that, for insulating systems, the printed 'chemical potential' value is not uniquely defined.
  | It can be anywhere in the energy gap, as long as it correctly separates occupied and unoccupied states.
  | In systems with a gap, the physically relevant chemical potential is the VBM or HOMO.

  Self-consistency cycle converged.


------------------------------------------------------------
  End self-consistency iteration #    34       :  max(cpu_time)    wall_clock(cpu1)
  | Time for this iteration                     :       15.367 s          15.428 s
  | Charge density & force component update     :        0.982 s           0.983 s
  | Density mixing                              :        0.009 s           0.002 s
  | Hartree multipole update                    :        0.003 s           0.004 s
  | Hartree multipole summation                 :        0.078 s           0.077 s
  | Hartree pot. SCF incomplete forces          :        0.061 s           0.061 s
  | Integration                                 :        0.130 s           0.130 s
  | Fock matrix evaluation                      :       14.024 s          14.024 s
  | Solution of K.-S. eqns.                     :        0.071 s           0.071 s
  | Total energy evaluation                     :        0.005 s           0.003 s

  Partial memory accounting:
  | Current value for overall tracked memory usage:
  |   Minimum:       91.402 MB (on task 574)
  |   Maximum:      140.010 MB (on task 224)
  |   Average:      119.094 MB
  | Peak value for overall tracked memory usage:
  |   Minimum:      106.357 MB (on task 383 after allocating d_wave)
  |   Maximum:      164.509 MB (on task  96 after allocating tmp2_aux_mem)
  |   Average:      143.592 MB
  | Largest tracked array allocation so far:
  |   Minimum:       17.214 MB (ovlp3fn2 on task 444)
  |   Maximum:       40.805 MB (d_aux_mat on task  68)
  |   Average:       30.277 MB
  Note:  These values currently only include a subset of arrays which are explicitly tracked.
  The "true" memory usage will be greater.
------------------------------------------------------------
  Removing unitary transformations (pure translations, rotations) from forces on atoms.
  Atomic forces before filtering:
  | Net force on center of mass :   0.268806E-06 -0.362154E-06 -0.151220E-07 eV/A
  Atomic forces after filtering:
  | Net force on center of mass :   0.139380E-17 -0.696899E-18  0.975658E-17 eV/A

  Energy and forces in a compact form:
  | Total energy uncorrected      :         -0.209966730803864E+06 eV
  | Total energy corrected        :         -0.209966730803864E+06 eV  <-- do not rely on this value for anything but (periodic) metals
  | Electronic free energy        :         -0.209966730803864E+06 eV
  Total atomic forces (unitary forces cleaned) [eV/Ang]:
  |    1         -0.170022820132815E-06         -0.562720483710928E-06         -0.221295537349692E-06
  |    2          0.205049105935605E-06          0.535278001438954E-06         -0.191780472925246E-06
  |    3         -0.513425344502417E-06          0.137148915461283E-05          0.639438426954519E-06
  |    4         -0.241161625214567E-06         -0.205141985774422E-05         -0.297117424164440E-05
  |    5         -0.677423396903886E-02          0.521790722301673E-08         -0.192378690952530E-02
  |    6         -0.677367172353991E-02         -0.180786426411852E-07          0.192445102227462E-02
  |    7          0.677457061237317E-02         -0.544078102334012E-06          0.192309869333076E-02
  |    8          0.677507204247335E-02         -0.558955150313776E-06         -0.192356695448181E-02
  |    9         -0.672058911716593E-02          0.444396858501663E-06         -0.149856506711823E-02
  |   10         -0.671367372403356E-02          0.334731692070013E-06          0.150113118494253E-02
  |   11          0.670918057667565E-02         -0.170591186851907E-05          0.149979199814931E-02
  |   12          0.671916811548356E-02          0.133263012203890E-05         -0.149783939261881E-02
  |   13          0.976724778793105E-03          0.683659707320855E-07          0.792290859556986E-03
  |   14          0.976207102429936E-03         -0.570857993350605E-06         -0.793583018510457E-03
  |   15         -0.975559405508622E-03          0.240334444864241E-06         -0.792032865632229E-03
  |   16         -0.976931170294412E-03          0.413013991105172E-06          0.791480336528518E-03
  |   17         -0.608084411325464E-02          0.198138593233941E-07          0.661124413754958E-02
  |   18         -0.607500029158325E-02         -0.178292797208715E-06         -0.661240497156397E-02
  |   19          0.607651275476935E-02         -0.107874852825641E-06         -0.661174241711206E-02
  |   20          0.608178210836588E-02          0.198020240688901E-06          0.661033248678970E-02
  |   21         -0.414265846381563E-02          0.313052374426934E-02         -0.635886258619737E-02
  |   22         -0.414330383270609E-02         -0.313177702676257E-02          0.635987752682441E-02
  |   23          0.414521364969803E-02          0.313300855281098E-02          0.635999545014147E-02
  |   24          0.414325859848326E-02         -0.313160109584095E-02         -0.635991996926946E-02
  |   25          0.414374555516201E-02         -0.313186729433078E-02          0.635943006790788E-02
  |   26          0.414308667711542E-02          0.313174575155054E-02         -0.635973873007204E-02
  |   27         -0.414314329480817E-02         -0.313138151204077E-02         -0.635864690639444E-02
  |   28         -0.414419390538974E-02          0.313268377785026E-02          0.636031083632535E-02

  ------------------------------------ 
  Start decomposition of the XC Energy 
  ------------------------------------ 
  X and C from original XC functional choice 
  Hartree-Fock Energy :       -112.679197204 Ha          -3066.156960270 eV
  X Energy            :       -450.393695831 Ha         -12255.836033623 eV
  C Energy            :        -11.927686316 Ha           -324.568858545 eV
  XC Energy w/o HF    :       -349.642184943 Ha          -9514.247931898 eV
  Total XC Energy     :       -462.321382147 Ha         -12580.404892168 eV
  ------------------------------------ 
  LDA X and C from self-consistent density 
  X Energy LDA        :       -417.826838507 Ha         -11369.646757025 eV
  C Energy LDA        :        -23.374538549 Ha           -636.053555958 eV
  ------------------------------------ 
  End decomposition of the XC Energy 
  ------------------------------------ 

------------------------------------------------------------

------------------------------------------------------------------------------
  Final output of selected total energy values:

  The following output summarizes some interesting total energy values
  at the end of a run (AFTER all relaxation, molecular dynamics, etc.).

  | Total energy of the DFT / Hartree-Fock s.c.f. calculation      :        -209966.730803864 eV
  | Final zero-broadening corrected energy (caution - metals only) :        -209966.730803864 eV
  | For reference only, the value of 1 Hartree used in FHI-aims is :             27.211384500 eV
  | For reference only, the overall average (free atom contribution
  | + realspace contribution) of the electrostatic potential after
  | s.c.f. convergence is                                          :            -14.156437591 eV

  Before relying on these values, please be sure to understand exactly which
  total energy value is referred to by a given number. Different objects may
  all carry the same name 'total energy'. Definitions:

  Total energy of the DFT / Hartree-Fock s.c.f. calculation:
  | Note that this energy does not include ANY quantities calculated after the
  | s.c.f. cycle, in particular not ANY RPA, MP2, etc. many-body perturbation terms.

  Final zero-broadening corrected energy:
  | For metallic systems only, a broadening of the occupation numbers at the Fermi
  | level can be extrapolated back to zero broadening by an electron-gas inspired
  | formula. For all systems that are not real metals, this value can be
  | meaningless and should be avoided.

------------------------------------------------------------------------------
  Methods described in the following list of references were used in this FHI-aims run.
  If you publish the results, please make sure to cite these reference if they apply.
  FHI-aims is an academic code, and for our developers (often, Ph.D. students
  and postdocs), scientific credit in the community is essential.
  Thank you for helping us!

  For any use of FHI-aims, please cite:

    Volker Blum, Ralf Gehrke, Felix Hanke, Paula Havu, Ville Havu,
    Xinguo Ren, Karsten Reuter, and Matthias Scheffler
    'Ab initio molecular simulations with numeric atom-centered orbitals'
    Computer Physics Communications 180, 2175-2196 (2009)
    http://doi.org/10.1016/j.cpc.2009.06.022


  For Hartree-Fock, hybrid functionals, or many-body perturbation theory used in your run, please cite:

    Xinguo Ren, Patrick Rinke, Volker Blum, Juergen Wieferink, Alex Tkatchenko,
    Andrea Sanfilippo, Karsten Reuter, and Matthias Scheffler,
    'Resolution-of-identity approach to Hartree-Fock, hybrid density functionals,
    RPA, MP2, and GW with numeric atom-centered orbital basis functions'
    New Journal of Physics 14, 053020 (2012).
    http://doi.org/10.1088/1367-2630/14/5/053020


  The provided symmetry information was generated with SPGlib:

    Atsushi Togo, Yusuke Seto, Dimitar Pashov
    SPGlib 1.7.3 obtained from http://spglib.sourceforge.net
    Copyright (C) 2008 Atsushi Togo


 DFT+U infrastructure was used in your run
 please cite:

 Matthias Kick, Karsten Reuter and Harald Oberhofer,
 Intricacies Of DFT+U, not only in a Numeric Atom Centered Orbital Framework

 Journal of Chemical Theory and Computation
 https://


  The ELSI infrastructure was used in your run to solve the Kohn-Sham electronic structure.
  Please check out http://elsi-interchange.org to learn more.
  If scalability is important for your project, please acknowledge ELSI by citing:

    V. W-z. Yu, F. Corsetti, A. Garcia, W. P. Huhn, M. Jacquelin, W. Jia,
    B. Lange, L. Lin, J. Lu, W. Mi, A. Seifitokaldani, A. Vazquez-Mayagoitia,
    C. Yang, H. Yang, and V. Blum
    'ELSI: A unified software interface for Kohn-Sham electronic structure solvers'
    Computer Physics Communications 222, 267-285 (2018).
    http://doi.org/10.1016/j.cpc.2017.09.007


  For the real-space grid partitioning and parallelization used in this calculation, please cite:

    Ville Havu, Volker Blum, Paula Havu, and Matthias Scheffler,
    'Efficient O(N) integration for all-electron electronic structure calculation'
    'using numerically tabulated basis functions'
    Journal of Computational Physics 228, 8367-8379 (2009).
    http://doi.org/10.1016/j.jcp.2009.08.008


  The high-level electronic structure method used in your calculation
  employed our efficient localized resolution of identity for the Coulomb operator.
  Some calculations, especially large-scale hybrid density functional theory,
  are only possible thanks to this development. For this feature, please cite:

    Arvid Ihrig, Juergen Wieferink, Igor Ying Zhang, Matti Ropo, Xinguo Ren,
    Patrick Rinke, Matthias Scheffler, and Volker Blum,
    'Accurate localized resolution of identity approach for linear-scaling
    hybrid density functionals and for many-body perturbation theory'
    New Journal of Physics 117, 093020 (2015).
    http://doi.org/10.1088/1367-2630/17/9/093020

  Of course, there are many other important community references, e.g., those cited in the
  above references. Our list is limited to references that describe implementations in the
  FHI-aims code. The reason is purely practical (length of this list) - please credit others as well.

------------------------------------------------------------
          Leaving FHI-aims.
          Date     :  20250316, Time     :  101111.689

          Computational steps:
          | Number of self-consistency cycles          :           34
          | Number of SCF (re)initializations          :            1

          Detailed time accounting                     :  max(cpu_time)    wall_clock(cpu1)
          | Total time                                  :      468.267 s         469.425 s
          | Preparation time                            :        0.339 s           0.336 s
          | Boundary condition initalization            :        0.045 s           0.044 s
          | Grid partitioning                           :        0.043 s           0.044 s
          | Preloading free-atom quantities on grid     :        0.055 s           0.057 s
          | Free-atom superposition energy              :        0.003 s           0.003 s
          | Total time for integrations                 :        3.968 s           3.973 s
          | Product basis setup: Total time             :       12.894 s          12.945 s
          | Total time evaluating exchange matrix       :      435.534 s         435.710 s
          | Total time for solution of K.-S. equations  :        2.847 s           2.815 s
          | Total time for density & force components   :        8.772 s           8.777 s
          | Total time for mixing                       :        0.388 s           0.097 s
          | Total time for Hartree multipole update     :        0.174 s           0.184 s
          | Total time for Hartree multipole sum        :        1.322 s           1.320 s
          | Total time for total energy evaluation      :        0.205 s           0.107 s
          | Total time NSC force correction             :        0.123 s           0.122 s
          | Total time for scaled ZORA corrections      :        0.000 s           0.000 s

          Partial memory accounting:
          | Residual value for overall tracked memory usage across tasks:     0.000000 MB (should be 0.000000 MB)
          | Peak values for overall tracked memory usage:
          |   Minimum:      106.357 MB (on task 383 after allocating d_wave)
          |   Maximum:      164.509 MB (on task  96 after allocating tmp2_aux_mem)
          |   Average:      143.592 MB
          | Largest tracked array allocation:
          |   Minimum:       17.214 MB (ovlp3fn2 on task 444)
          |   Maximum:       40.805 MB (d_aux_mat on task  68)
          |   Average:       30.277 MB
          Note:  These values currently only include a subset of arrays which are explicitly tracked.
          The "true" memory usage will be greater.

          Have a nice day.
------------------------------------------------------------
