------------------------------------------------------------
          Invoking FHI-aims ...

          When using FHI-aims, please cite the following reference:

            Volker Blum, Ralf Gehrke, Felix Hanke, Paula Havu,
            Ville Havu, Xinguo Ren, Karsten Reuter, and Matthias Scheffler,
            'Ab Initio Molecular Simulations with Numeric Atom-Centered Orbitals',
            Computer Physics Communications 180, 2175-2196 (2009)

          In addition, many other developments in FHI-aims are likely important for
          your particular application. A partial list of references is given at the end of
          this file. Thank you for giving credit to the authors of these developments.

          For any questions about FHI-aims, please visit our slack channel at

            https://fhi-aims.slack.com

          and our main development and support site at

            https://aims-git.rz-berlin.mpg.de .

          The latter site, in particular, has a wiki to collect information, as well
          as an issue tracker to log discussions, suggest improvements, and report issues
          or bugs. https://aims-git.rz-berlin.mpg.de is also the main development site
          of the project and all new and updated code versions can be obtained there.
          Please send an email to aims-coordinators@fhi-berlin.mpg.de and we will add
          you to these sites. They are for you and everyone is welcome there.

------------------------------------------------------------



  Date     :  20240509, Time     :  043835.990
  Time zero on CPU 1             :   0.271020000000000E+00  s.
  Internal wall clock time zero  :           484461515.990  s.

  FHI-aims created a unique identifier for this run for later identification
  aims_uuid : 68F9EA1F-C147-4548-A1A8-BB05013E9512

  Build configuration of the current instance of FHI-aims
  -------------------------------------------------------
  FHI-aims version      : 210309
  Commit number         : 8cf946fba
  CMake host system     : Linux-3.10.0-1127.13.1.el7.x86_64
  CMake version         : 3.17.3
  Fortran compiler      : /apps/compilers/intel/2018.2/compilers_and_libraries_2018/linux/mpi/intel64/bin/mpiifort (Intel) version 18.0.2.20180210
  Fortran compiler flags: -O3 -fp-model precise
  C compiler            : /apps/compilers/intel/2018.2/compilers_and_libraries_2018/linux/mpi/intel64/bin/mpicc (Intel) version 18.0.2.20180210
  C compiler flags      : -O3 -ip -fp-model precise -std=gnu99
  Using MPI
  Using ScaLAPACK
  Using LibXC
  Using i-PI
  Using RLSY
  Linking against: /apps/compilers/intel/2018.2/compilers_and_libraries_2018/linux/mkl/lib/intel64/libmkl_scalapack_lp64.so
                   /apps/compilers/intel/2018.2/compilers_and_libraries_2018/linux/mkl/lib/intel64/libmkl_blacs_intelmpi_lp64.so
                   /apps/compilers/intel/2018.2/compilers_and_libraries_2018/linux/mkl/lib/intel64/libmkl_intel_lp64.so
                   /apps/compilers/intel/2018.2/compilers_and_libraries_2018/linux/mkl/lib/intel64/libmkl_intel_thread.so
                   /apps/compilers/intel/2018.2/compilers_and_libraries_2018/linux/mkl/lib/intel64/libmkl_core.so
                   /usr/lib64/libpthread.so
                   /home/scw1057/software/libxc/libxc-4.3.4/lib/libxcf03.so
                   /home/scw1057/software/libxc/libxc-4.3.4/lib/libxcf90.so
                   /home/scw1057/software/libxc/libxc-4.3.4/lib/libxc.so

  Using       80 parallel tasks.
  Task        0 on host ccs0120 reporting.
  Task        1 on host ccs0120 reporting.
  Task        2 on host ccs0120 reporting.
  Task        3 on host ccs0120 reporting.
  Task        4 on host ccs0120 reporting.
  Task        5 on host ccs0120 reporting.
  Task        6 on host ccs0120 reporting.
  Task        7 on host ccs0120 reporting.
  Task        8 on host ccs0120 reporting.
  Task        9 on host ccs0120 reporting.
  Task       10 on host ccs0120 reporting.
  Task       11 on host ccs0120 reporting.
  Task       12 on host ccs0120 reporting.
  Task       13 on host ccs0120 reporting.
  Task       14 on host ccs0120 reporting.
  Task       15 on host ccs0120 reporting.
  Task       16 on host ccs0120 reporting.
  Task       17 on host ccs0120 reporting.
  Task       18 on host ccs0120 reporting.
  Task       19 on host ccs0120 reporting.
  Task       20 on host ccs0120 reporting.
  Task       21 on host ccs0120 reporting.
  Task       22 on host ccs0120 reporting.
  Task       23 on host ccs0120 reporting.
  Task       24 on host ccs0120 reporting.
  Task       25 on host ccs0120 reporting.
  Task       26 on host ccs0120 reporting.
  Task       27 on host ccs0120 reporting.
  Task       28 on host ccs0120 reporting.
  Task       29 on host ccs0120 reporting.
  Task       30 on host ccs0120 reporting.
  Task       31 on host ccs0120 reporting.
  Task       32 on host ccs0120 reporting.
  Task       33 on host ccs0120 reporting.
  Task       34 on host ccs0120 reporting.
  Task       35 on host ccs0120 reporting.
  Task       36 on host ccs0120 reporting.
  Task       37 on host ccs0120 reporting.
  Task       38 on host ccs0120 reporting.
  Task       39 on host ccs0120 reporting.
  Task       40 on host ccs0123 reporting.
  Task       41 on host ccs0123 reporting.
  Task       42 on host ccs0123 reporting.
  Task       43 on host ccs0123 reporting.
  Task       44 on host ccs0123 reporting.
  Task       45 on host ccs0123 reporting.
  Task       46 on host ccs0123 reporting.
  Task       47 on host ccs0123 reporting.
  Task       48 on host ccs0123 reporting.
  Task       49 on host ccs0123 reporting.
  Task       50 on host ccs0123 reporting.
  Task       51 on host ccs0123 reporting.
  Task       52 on host ccs0123 reporting.
  Task       53 on host ccs0123 reporting.
  Task       54 on host ccs0123 reporting.
  Task       55 on host ccs0123 reporting.
  Task       56 on host ccs0123 reporting.
  Task       57 on host ccs0123 reporting.
  Task       58 on host ccs0123 reporting.
  Task       59 on host ccs0123 reporting.
  Task       60 on host ccs0123 reporting.
  Task       61 on host ccs0123 reporting.
  Task       62 on host ccs0123 reporting.
  Task       63 on host ccs0123 reporting.
  Task       64 on host ccs0123 reporting.
  Task       65 on host ccs0123 reporting.
  Task       66 on host ccs0123 reporting.
  Task       67 on host ccs0123 reporting.
  Task       68 on host ccs0123 reporting.
  Task       69 on host ccs0123 reporting.
  Task       70 on host ccs0123 reporting.
  Task       71 on host ccs0123 reporting.
  Task       72 on host ccs0123 reporting.
  Task       73 on host ccs0123 reporting.
  Task       74 on host ccs0123 reporting.
  Task       75 on host ccs0123 reporting.
  Task       76 on host ccs0123 reporting.
  Task       77 on host ccs0123 reporting.
  Task       78 on host ccs0123 reporting.
  Task       79 on host ccs0123 reporting.

  Performing system and environment tests:
  *** Environment variable OMP_NUM_THREADS is not set
  *** For performance reasons you might want to set it to 1
  | Checking for ScaLAPACK...
  | Testing pdtran()...
  | All pdtran() tests passed.

  Obtaining array dimensions for all initial allocations:
  
  -----------------------------------------------------------------------
  Parsing control.in (first pass over file, find array dimensions only).
  The contents of control.in will be repeated verbatim below
  unless switched off by setting 'verbatim_writeout .false.' .
  in the first line of control.in .
  -----------------------------------------------------------------------
  
  #===============================================================================
  # FHI-aims file: ./control.in
  # Created using the Atomic Simulation Environment (ASE)
  # Thu May  9 04:38:33 2024
  #===============================================================================
  spin                               none
  relativistic                       atomic_zora scalar
  compute_forces                     .true.
  override_warning_libxc             true
  xc                                 libxc MGGA_X_MBEEF+GGA_C_PBE_SOL
  k_grid                             14 4 15
  occupation_type                    gaussian 0.1
  plus_u_petukhov_mixing             1
  sc_accuracy_etot                   1e-06
  sc_accuracy_eev                    0.001
  sc_accuracy_rho                    1e-06
  sc_accuracy_forces                 0.0001
  #===============================================================================
  
  ################################################################################
  #
  #  FHI-aims code project
  #  VB, Fritz-Haber Institut, 2009
  #
  #  Suggested "light" defaults for Mo atom (to be pasted into control.in file)
  #  Be sure to double-check any results obtained with these settings for post-processing,
  #  e.g., with the "tight" defaults and larger basis sets.
  #
  ################################################################################
    species        Mo
  #     global species definitions
      nucleus             42
      mass                95.94
  #
      l_hartree           4
  #
      cut_pot             3.5  1.5  1.0
      basis_dep_cutoff    1e-4
  #
      radial_base         59 5.0
      radial_multiplier   1
      angular_grids specified
        division   0.4847   50
        division   0.9168  110
        division   1.2280  194
        division   1.6402  302
  #      division   1.8849  434
  #      division   2.0237  590
  #      division   2.0980  974
  #      division   2.7405 1202
  #      outer_grid  974
        outer_grid  302
  ################################################################################
  #
  #  Definition of "minimal" basis
  #
  ################################################################################
  #     valence basis states
      valence      5  s   1.
      valence      4  p   6.
      valence      4  d   5.
  #     ion occupancy
      ion_occ     5  s   0.
      ion_occ     4  p   6.
      ion_occ     4  d   4.
  ################################################################################
  #
  #  Suggested additional basis functions. For production calculations,
  #  uncomment them one after another (the most important basis functions are
  #  listed first).
  #
  #  Constructed for dimers: 1.675 A, 1.9 A, 2.375 A, 3.00 A, 4.00 A
  #
  ################################################################################
  #  "First tier"  - max. impr. -711.23  meV, min. impr. -21.07 meV
       hydro 4 f 8.4
       hydro 3 d 2.8
       ionic 5 p auto
  #     hydro 5 g 12
       ionic 5 s auto
  #  "Second tier" - max. impr. -39.38  meV, min. impr. -2.68 meV
  #     hydro 4 f 12.4
  #     hydro 3 d 3.3
  #     hydro 6 h 17.2
  #     hydro 4 f 7.6
  #     hydro 3 p 3.0
  #     hydro 1 s 0.65
  #  "Third tier"  - max. impr. -5.50 meV, min. impr. -0.47 meV
  #     hydro 4 f 29.2
  #     hydro 5 g 11.2
  #     hydro 3 d 6.8
  #     hydro 6 h 14.8
  #     hydro 2 p 2.3
  #     hydro 4 s 3.8
  #  "Fourth tier"  - max. impr. -0.58 meV, min. impr. -0.19 meV
  #     hydro 5 f 6.8
  #     hydro 5 d 14.8
  #     hydro 6 s 7.8
  #     hydro 5 g 20.8
  #     hydro 5 d 10.4
  #     hydro 5 p 9.8
  #  Further functions - -0.17 meV and below
  #     hydro 5 d 3.2
  plus_u 4 d 0
  ################################################################################
  #
  #  FHI-aims code project
  #  VB, Fritz-Haber Institut, 2009
  #
  #  Suggested "light" defaults for O atom (to be pasted into control.in file)
  #  Be sure to double-check any results obtained with these settings for post-processing,
  #  e.g., with the "tight" defaults and larger basis sets.
  #
  ################################################################################
    species        O
  #     global species definitions
      nucleus             8
      mass                15.9994
  #
      l_hartree           4
  #
      cut_pot             3.5  1.5  1.0
      basis_dep_cutoff    1e-4
  #
      radial_base         36 5.0
      radial_multiplier   1
       angular_grids specified
        division   0.2659   50
        division   0.4451  110
        division   0.6052  194
        division   0.7543  302
  #      division   0.8014  434
  #      division   0.8507  590
  #      division   0.8762  770
  #      division   0.9023  974
  #      division   1.2339 1202
  #      outer_grid 974
        outer_grid 302
  ################################################################################
  #
  #  Definition of "minimal" basis
  #
  ################################################################################
  #     valence basis states
      valence      2  s   2.
      valence      2  p   4.
  #     ion occupancy
      ion_occ      2  s   1.
      ion_occ      2  p   3.
  ################################################################################
  #
  #  Suggested additional basis functions. For production calculations,
  #  uncomment them one after another (the most important basis functions are
  #  listed first).
  #
  #  Constructed for dimers: 1.0 A, 1.208 A, 1.5 A, 2.0 A, 3.0 A
  #
  ################################################################################
  #  "First tier" - improvements: -699.05 meV to -159.38 meV
       hydro 2 p 1.8
       hydro 3 d 7.6
       hydro 3 s 6.4
  #  "Second tier" - improvements: -49.91 meV to -5.39 meV
  #     hydro 4 f 11.6
  #     hydro 3 p 6.2
  #     hydro 3 d 5.6
  #     hydro 5 g 17.6
  #     hydro 1 s 0.75
  #  "Third tier" - improvements: -2.83 meV to -0.50 meV
  #     ionic 2 p auto
  #     hydro 4 f 10.8
  #     hydro 4 d 4.7
  #     hydro 2 s 6.8
  #  "Fourth tier" - improvements: -0.40 meV to -0.12 meV
  #     hydro 3 p 5
  #     hydro 3 s 3.3
  #     hydro 5 g 15.6
  #     hydro 4 f 17.6
  #     hydro 4 d 14
  # Further basis functions - -0.08 meV and below
  #     hydro 3 s 2.1
  #     hydro 4 d 11.6
  #     hydro 3 p 16
  #     hydro 2 s 17.2
  plus_u 2 p 0
  
  -----------------------------------------------------------------------
  Completed first pass over input file control.in .
  -----------------------------------------------------------------------
  
  
  -----------------------------------------------------------------------
  Parsing geometry.in (first pass over file, find array dimensions only).
  The contents of geometry.in will be repeated verbatim below
  unless switched off by setting 'verbatim_writeout .false.' .
  in the first line of geometry.in .
  -----------------------------------------------------------------------
  
  #=======================================================
  # FHI-aims file: ./geometry.in
  # Created using the Atomic Simulation Environment (ASE)
  # Thu May  9 04:38:33 2024
  #=======================================================
  lattice_vector 3.9628000000000001 0.0000000000000000 0.0000000000000000
  lattice_vector 0.0000000000000000 13.8550000000000004 0.0000000000000000
  lattice_vector 0.0000000000000000 0.0000000000000000 3.6964000000000001
  atom_frac 0.4107476424184796 0.6034264070398302 0.2500000079157949 Mo
  atom_frac 0.0892522098317535 0.1034268029446904 0.2499999938950167 Mo
  atom_frac 0.5892522378522357 0.3965732334534168 0.7500000071231417 Mo
  atom_frac 0.9107476588579856 0.8965735592105142 0.7499999980755921 Mo
  atom_frac -0.0054046556849708 0.9346389005443309 0.2499999693795550 O
  atom_frac 0.5054046451389754 0.4346389414839984 0.2499999787941165 O
  atom_frac 1.0054046380114954 0.0653610576149928 0.7500000167605193 O
  atom_frac 0.4945953454011313 0.5653610998972856 0.7500000366597278 O
  atom_frac 0.9802852850865867 0.5891181911053388 0.2500000222492891 O
  atom_frac 0.5197147357315782 0.0891181696049318 0.2499999983053586 O
  atom_frac 0.0197147538523358 0.4108818352652222 0.7499999880406729 O
  atom_frac 0.4802852908136467 0.9108818006083812 0.7499999724884917 O
  atom_frac 0.4607468723416065 0.7226266094897461 0.2500000195864567 O
  atom_frac 0.0392532427885387 0.2226262893707594 0.2500000045944767 O
  atom_frac 0.5392532331168025 0.2773736963945559 0.7499999933415993 O
  atom_frac 0.9607468644418201 0.7773734059720049 0.7499999927901906 O
  
  -----------------------------------------------------------------------
  Completed first pass over input file geometry.in .
  -----------------------------------------------------------------------
  

  Basic array size parameters:
  | Number of species                 :        2
  | Number of atoms                   :       16
  | Number of lattice vectors         :        3
  | Max. basis fn. angular momentum   :        3
  | Max. atomic/ionic basis occupied n:        5
  | Max. number of basis fn. types    :        3
  | Max. radial fns per species/type  :       10
  | Max. logarithmic grid size        :     1436
  | Max. radial integration grid size :       59
  | Max. angular integration grid size:      302
  | Max. angular grid division number :        8
  | Radial grid for Hartree potential :     1436
  | Number of spin channels           :        1
  | Max. number of (n,l) shells per species with '+U' treatment:        1

------------------------------------------------------------
          Reading file control.in.
------------------------------------------------------------
  Spin treatment: No spin polarisation.
  Scalar relativistic treatment of kinetic energy: on-site free-atom approximation to ZORA.
  Forces will be computed.
  XC: Using LibXC. Please refer to LibXC output for further details.
  Using libxc - Initializing
  Libxc version: 4.3.4


  ** PLEASE ** be careful using LibXC. Whilst most of the LDA, GGA and MGGA functionals,
  and hybrid variations therein, should be stable (though we always recommend testing!),
  there are several fancy functionals with e.g. range-separation, like HSE03/HSE06/LC-PBEh,
  and also MGGA functionals that depend on the laplacian of the density, like BR89,
  that are not fully implemented due to the infrastrucutre for these functionals being incomplete or non-generic.
  If you want to use these functionals please contact the development team and we will work on them with you!

  You have selected libxc functional MGGA_X_MBEEF (249)
    - Description: mBEEF exchange
    - Type: MGGA(Exchange)
    - Reference to Literature:
      [1] J. Wellendorff, K. T. Lundgaard, K. W. Jacobsen, and T. Bligaard, J. Chem. Phys. 140, 144107 (2014)

  You have selected libxc functional GGA_C_PBE_SOL (133)
    - Description: Perdew, Burke & Ernzerhof SOL
    - Type: GGA(Correlation)
    - Reference to Literature:
      [1] J. P. Perdew, A. Ruzsinszky, G. I. Csonka, O. A. Vydrov, G. E. Scuseria, L. A. Constantin, X. Zhou, and K. Burke, Phys.

  Switching on meta-ggas
  Found k-point grid:        14         4        15
  Occupation type: Gaussian broadening, width =   0.100000E+00 eV.
  Fixing petukhov mixing factor to   1.000000000000
  Convergence accuracy of total energy:  0.1000E-05
  Convergence accuracy of sum of eigenvalues:  0.1000E-02
  Convergence accuracy of self-consistent charge density:  0.1000E-05
  Convergence accuracy of forces:  0.1000E-03
 
  Reading configuration options for species Mo                  .
  | Found nuclear charge :  42.0000
  | Found atomic mass :    95.9400000000000      amu
  | Found l_max for Hartree potential  :   4
  | Found cutoff potl. onset [A], width [A], scale factor :    3.50000    1.50000    1.00000
  | Threshold for basis-dependent cutoff potential is   0.100000E-03
  | Found data for basic radial integration grid :    59 points, outermost radius =    5.000 A
  | Found multiplier for basic radial grid :   1
  | Found angular grid specification: user-specified.
  | Specified grid contains     5 separate shells.
  | Check grid settings after all constraints further below.
  | Found free-atom valence shell :  5 s   1.000
  | Found free-atom valence shell :  4 p   6.000
  | Found free-atom valence shell :  4 d   5.000
  | Found free-ion valence shell :  5 s   0.000
  | Found free-ion valence shell :  4 p   6.000
  | Found free-ion valence shell :  4 d   4.000
  | Found hydrogenic basis function :  4 f   8.400
  | Found hydrogenic basis function :  3 d   2.800
  | Found ionic basis function :  5 p , default cutoff radius.
  | Found ionic basis function :  5 s , default cutoff radius.
  | Found request for '+U' treatment for  4 d shell, U =     0.000000 eV.
  Species Mo                  : Missing cutoff potential type.
  Defaulting to exp(1/x)/(1-x)^2 type cutoff potential.
  Species Mo: No 'logarithmic' tag. Using default grid for free atom:
  | Default logarithmic grid data [bohr] : 0.1000E-03 0.1000E+03 0.1012E+01
  | Will include ionic basis functions of  2.0-fold positive Mo                   ion.
  Species Mo: On-site basis accuracy parameter (for Gram-Schmidt orthonormalisation) not specified.
  Using default value basis_acc =  0.1000000E-03.
  Species Mo                  : Using default innermost maximum threshold i_radial=  2 for radial functions.
  Species Mo                  : Default cutoff onset for free atom density etc. : 0.35000000E+01 AA.
  Species Mo                  : Basic radial grid will be enhanced according to radial_multiplier =   1, to contain    59 grid points.
 
  Reading configuration options for species O                   .
  | Found nuclear charge :   8.0000
  | Found atomic mass :    15.9994000000000      amu
  | Found l_max for Hartree potential  :   4
  | Found cutoff potl. onset [A], width [A], scale factor :    3.50000    1.50000    1.00000
  | Threshold for basis-dependent cutoff potential is   0.100000E-03
  | Found data for basic radial integration grid :    36 points, outermost radius =    5.000 A
  | Found multiplier for basic radial grid :   1
  | Found angular grid specification: user-specified.
  | Specified grid contains     5 separate shells.
  | Check grid settings after all constraints further below.
  | Found free-atom valence shell :  2 s   2.000
  | Found free-atom valence shell :  2 p   4.000
  | Found free-ion valence shell :  2 s   1.000
  | Found free-ion valence shell :  2 p   3.000
  | Found hydrogenic basis function :  2 p   1.800
  | Found hydrogenic basis function :  3 d   7.600
  | Found hydrogenic basis function :  3 s   6.400
  | Found request for '+U' treatment for  2 p shell, U =     0.000000 eV.
  Species O                   : Missing cutoff potential type.
  Defaulting to exp(1/x)/(1-x)^2 type cutoff potential.
  Species O : No 'logarithmic' tag. Using default grid for free atom:
  | Default logarithmic grid data [bohr] : 0.1000E-03 0.1000E+03 0.1012E+01
  Species O : On-site basis accuracy parameter (for Gram-Schmidt orthonormalisation) not specified.
  Using default value basis_acc =  0.1000000E-03.
  Species O                   : Using default innermost maximum threshold i_radial=  2 for radial functions.
  Species O                   : Default cutoff onset for free atom density etc. : 0.35000000E+01 AA.
  Species O                   : Basic radial grid will be enhanced according to radial_multiplier =   1, to contain    36 grid points.
 
  Finished reading input file 'control.in'.
 
------------------------------------------------------------


------------------------------------------------------------
          Reading geometry description geometry.in.
------------------------------------------------------------
  | The smallest distance between any two atoms is         1.66335187 AA.
  | The first atom of this pair is atom number                      2 .
  | The second atom of this pair is atom number                    14 .
  | Wigner-Seitz cell of the first atom image           0     0     0 .
  | (The Wigner-Seitz cell of the second atom is 0 0 0  by definition.)

  Symmetry information by spglib:
  | Precision set to  0.1E-04
  | Number of Operations  : 4
  | Space group           : 31
  | International         : Pmn2_1
  | Schoenflies           : C2v^7
  Input structure read successfully.
  The structure contains       16 atoms,  and a total of        264.000 electrons.

  Input geometry:
  | Unit cell:
  |        3.96280000        0.00000000        0.00000000
  |        0.00000000       13.85500000        0.00000000
  |        0.00000000        0.00000000        3.69640000
  | Atomic structure:
  |       Atom                x [A]            y [A]            z [A]
  |    1: Species Mo            1.62771076        8.36047287        0.92410003
  |    2: Species Mo            0.35368866        1.43297835        0.92409998
  |    3: Species Mo            2.33508877        5.49452215        2.77230003
  |    4: Species Mo            3.60911082       12.42202666        2.77229999
  |    5: Species O            -0.02141757       12.94942197        0.92409989
  |    6: Species O             2.00281753        6.02192253        0.92409992
  |    7: Species O             3.98421750        0.90557745        2.77230006
  |    8: Species O             1.95998243        7.83307804        2.77230014
  |    9: Species O             3.88467453        8.16223254        0.92410008
  |   10: Species O             2.05952555        1.23473224        0.92409999
  |   11: Species O             0.07812563        5.69276783        2.77229996
  |   12: Species O             1.90327455       12.62026735        2.77229990
  |   13: Species O             1.82584771       10.01199167        0.92410007
  |   14: Species O             0.15555275        3.08448724        0.92410002
  |   15: Species O             2.13695271        3.84301256        2.77229998
  |   16: Species O             3.80724767       10.77050854        2.77229997

  Lattice parameters for 3D lattice (in Angstroms) :     3.962800   13.855000    3.696400
  Angle(s) between unit vectors (in degrees)       :    90.000000   90.000000   90.000000


  Quantities derived from the lattice vectors:
  | Reciprocal lattice vector 1:  1.585542  0.000000  0.000000
  | Reciprocal lattice vector 2:  0.000000  0.453496  0.000000
  | Reciprocal lattice vector 3:  0.000000  0.000000  1.699812
  | Unit cell volume                               :   0.202949E+03  A^3

  Fractional coordinates:
                         L1                L2                L3
       atom_frac         0.41074764        0.60342641        0.25000001  Mo
       atom_frac         0.08925221        0.10342680        0.24999999  Mo
       atom_frac         0.58925224        0.39657323        0.75000001  Mo
       atom_frac         0.91074766        0.89657356        0.75000000  Mo
       atom_frac        -0.00540466        0.93463890        0.24999997  O
       atom_frac         0.50540465        0.43463894        0.24999998  O
       atom_frac         1.00540464        0.06536106        0.75000002  O
       atom_frac         0.49459535        0.56536110        0.75000004  O
       atom_frac         0.98028529        0.58911819        0.25000002  O
       atom_frac         0.51971474        0.08911817        0.25000000  O
       atom_frac         0.01971475        0.41088184        0.74999999  O
       atom_frac         0.48028529        0.91088180        0.74999997  O
       atom_frac         0.46074687        0.72262661        0.25000002  O
       atom_frac         0.03925324        0.22262629        0.25000000  O
       atom_frac         0.53925323        0.27737370        0.74999999  O
       atom_frac         0.96074686        0.77737341        0.74999999  O

 
  Finished reading input file 'control.in'.
 

------------------------------------------------------------
          Reading geometry description geometry.in.
------------------------------------------------------------
 
  Consistency checks for stacksize environment parameter are next.
 
  | Maximum stacksize for task 0: unlimited
  | Maximum stacksize for task 1: unlimited
  | Maximum stacksize for task 2: unlimited
  | Maximum stacksize for task 3: unlimited
  | Maximum stacksize for task 4: unlimited
  | Maximum stacksize for task 5: unlimited
  | Maximum stacksize for task 6: unlimited
  | Maximum stacksize for task 7: unlimited
  | Maximum stacksize for task 8: unlimited
  | Maximum stacksize for task 9: unlimited
  | Maximum stacksize for task 10: unlimited
  | Maximum stacksize for task 11: unlimited
  | Maximum stacksize for task 12: unlimited
  | Maximum stacksize for task 13: unlimited
  | Maximum stacksize for task 14: unlimited
  | Maximum stacksize for task 15: unlimited
  | Maximum stacksize for task 16: unlimited
  | Maximum stacksize for task 17: unlimited
  | Maximum stacksize for task 18: unlimited
  | Maximum stacksize for task 19: unlimited
  | Maximum stacksize for task 20: unlimited
  | Maximum stacksize for task 21: unlimited
  | Maximum stacksize for task 22: unlimited
  | Maximum stacksize for task 23: unlimited
  | Maximum stacksize for task 24: unlimited
  | Maximum stacksize for task 25: unlimited
  | Maximum stacksize for task 26: unlimited
  | Maximum stacksize for task 27: unlimited
  | Maximum stacksize for task 28: unlimited
  | Maximum stacksize for task 29: unlimited
  | Maximum stacksize for task 30: unlimited
  | Maximum stacksize for task 31: unlimited
  | Maximum stacksize for task 32: unlimited
  | Maximum stacksize for task 33: unlimited
  | Maximum stacksize for task 34: unlimited
  | Maximum stacksize for task 35: unlimited
  | Maximum stacksize for task 36: unlimited
  | Maximum stacksize for task 37: unlimited
  | Maximum stacksize for task 38: unlimited
  | Maximum stacksize for task 39: unlimited
  | Maximum stacksize for task 40: unlimited
  | Maximum stacksize for task 41: unlimited
  | Maximum stacksize for task 42: unlimited
  | Maximum stacksize for task 43: unlimited
  | Maximum stacksize for task 44: unlimited
  | Maximum stacksize for task 45: unlimited
  | Maximum stacksize for task 46: unlimited
  | Maximum stacksize for task 47: unlimited
  | Maximum stacksize for task 48: unlimited
  | Maximum stacksize for task 49: unlimited
  | Maximum stacksize for task 50: unlimited
  | Maximum stacksize for task 51: unlimited
  | Maximum stacksize for task 52: unlimited
  | Maximum stacksize for task 53: unlimited
  | Maximum stacksize for task 54: unlimited
  | Maximum stacksize for task 55: unlimited
  | Maximum stacksize for task 56: unlimited
  | Maximum stacksize for task 57: unlimited
  | Maximum stacksize for task 58: unlimited
  | Maximum stacksize for task 59: unlimited
  | Maximum stacksize for task 60: unlimited
  | Maximum stacksize for task 61: unlimited
  | Maximum stacksize for task 62: unlimited
  | Maximum stacksize for task 63: unlimited
  | Maximum stacksize for task 64: unlimited
  | Maximum stacksize for task 65: unlimited
  | Maximum stacksize for task 66: unlimited
  | Maximum stacksize for task 67: unlimited
  | Maximum stacksize for task 68: unlimited
  | Maximum stacksize for task 69: unlimited
  | Maximum stacksize for task 70: unlimited
  | Maximum stacksize for task 71: unlimited
  | Maximum stacksize for task 72: unlimited
  | Maximum stacksize for task 73: unlimited
  | Maximum stacksize for task 74: unlimited
  | Maximum stacksize for task 75: unlimited
  | Maximum stacksize for task 76: unlimited
  | Maximum stacksize for task 77: unlimited
  | Maximum stacksize for task 78: unlimited
  | Maximum stacksize for task 79: unlimited
  | Current stacksize for task 0: unlimited
  | Current stacksize for task 1: unlimited
  | Current stacksize for task 2: unlimited
  | Current stacksize for task 3: unlimited
  | Current stacksize for task 4: unlimited
  | Current stacksize for task 5: unlimited
  | Current stacksize for task 6: unlimited
  | Current stacksize for task 7: unlimited
  | Current stacksize for task 8: unlimited
  | Current stacksize for task 9: unlimited
  | Current stacksize for task 10: unlimited
  | Current stacksize for task 11: unlimited
  | Current stacksize for task 12: unlimited
  | Current stacksize for task 13: unlimited
  | Current stacksize for task 14: unlimited
  | Current stacksize for task 15: unlimited
  | Current stacksize for task 16: unlimited
  | Current stacksize for task 17: unlimited
  | Current stacksize for task 18: unlimited
  | Current stacksize for task 19: unlimited
  | Current stacksize for task 20: unlimited
  | Current stacksize for task 21: unlimited
  | Current stacksize for task 22: unlimited
  | Current stacksize for task 23: unlimited
  | Current stacksize for task 24: unlimited
  | Current stacksize for task 25: unlimited
  | Current stacksize for task 26: unlimited
  | Current stacksize for task 27: unlimited
  | Current stacksize for task 28: unlimited
  | Current stacksize for task 29: unlimited
  | Current stacksize for task 30: unlimited
  | Current stacksize for task 31: unlimited
  | Current stacksize for task 32: unlimited
  | Current stacksize for task 33: unlimited
  | Current stacksize for task 34: unlimited
  | Current stacksize for task 35: unlimited
  | Current stacksize for task 36: unlimited
  | Current stacksize for task 37: unlimited
  | Current stacksize for task 38: unlimited
  | Current stacksize for task 39: unlimited
  | Current stacksize for task 40: unlimited
  | Current stacksize for task 41: unlimited
  | Current stacksize for task 42: unlimited
  | Current stacksize for task 43: unlimited
  | Current stacksize for task 44: unlimited
  | Current stacksize for task 45: unlimited
  | Current stacksize for task 46: unlimited
  | Current stacksize for task 47: unlimited
  | Current stacksize for task 48: unlimited
  | Current stacksize for task 49: unlimited
  | Current stacksize for task 50: unlimited
  | Current stacksize for task 51: unlimited
  | Current stacksize for task 52: unlimited
  | Current stacksize for task 53: unlimited
  | Current stacksize for task 54: unlimited
  | Current stacksize for task 55: unlimited
  | Current stacksize for task 56: unlimited
  | Current stacksize for task 57: unlimited
  | Current stacksize for task 58: unlimited
  | Current stacksize for task 59: unlimited
  | Current stacksize for task 60: unlimited
  | Current stacksize for task 61: unlimited
  | Current stacksize for task 62: unlimited
  | Current stacksize for task 63: unlimited
  | Current stacksize for task 64: unlimited
  | Current stacksize for task 65: unlimited
  | Current stacksize for task 66: unlimited
  | Current stacksize for task 67: unlimited
  | Current stacksize for task 68: unlimited
  | Current stacksize for task 69: unlimited
  | Current stacksize for task 70: unlimited
  | Current stacksize for task 71: unlimited
  | Current stacksize for task 72: unlimited
  | Current stacksize for task 73: unlimited
  | Current stacksize for task 74: unlimited
  | Current stacksize for task 75: unlimited
  | Current stacksize for task 76: unlimited
  | Current stacksize for task 77: unlimited
  | Current stacksize for task 78: unlimited
  | Current stacksize for task 79: unlimited
 
  Consistency checks for the contents of control.in are next.
 
  MPI_IN_PLACE appears to work with this MPI implementation.
  | Keeping use_mpi_in_place .true. (see manual).
  Target number of points in a grid batch is not set. Defaulting to  100
  Method for grid partitioning is not set. Defaulting to parallel hash+maxmin partitioning.
  Batch size limit is not set. Defaulting to    200
  By default, will store active basis functions for each batch.
  If in need of memory, prune_basis_once .false. can be used to disable this option.
  communication_type for Hartree potential was not specified.
  Defaulting to calc_hartree .
  Defaulting to Pulay charge density mixer.
  Pulay mixer: Number of relevant iterations not set.
  Defaulting to    8 iterations.
  Pulay mixer: Number of initial linear mixing iterations not set.
  Defaulting to    0 iterations.
  Work space size for distributed Hartree potential not set.
  Defaulting to   0.200000E+03 MB.
  Mixing parameter for charge density mixing has not been set.
  Using default: charge_mix_param =     0.0500.
  The mixing parameter will be adjusted in iteration number     2 of the first full s.c.f. cycle only.
  Algorithm-dependent basis array size parameters:
  | n_max_pulay                         :        8
  Maximum number of self-consistency iterations not provided.
  Presetting  1000 iterations.
  Presetting      1001 iterations before the initial mixing cycle
  is restarted anyway using the sc_init_iter criterion / keyword.
  Presetting a factor      1.000 between actual scf density residual
  and density convergence criterion sc_accuracy_rho below which sc_init_iter
  takes no effect.
  Geometry relaxation not requested: no relaxation will be performed.
  Handling of forces: Unphysical translation and rotation will be removed from forces.
  No accuracy limit for integral partition fn. given. Defaulting to  0.1000E-14.
  No threshold value for u(r) in integrations given. Defaulting to  0.1000E-05.
  No accuracy for occupation numbers given. Defaulting to  0.1000E-12.
  No threshold value for occupation numbers given. Defaulting to  0.0000E+00.
  No accuracy for fermi level given. Defaulting to  0.1000E-19.
  Maximum # of iterations to find E_F not set. Defaulting to  200.
  Preferred method for the eigenvalue solver ('KS_method') not specified in 'control.in'.
  Defaulting to serial version, LAPACK (via ELSI), since more k-points than CPUs available.
  Will not use alltoall communication since running on < 1024 CPUs.
  Threshold for basis singularities not set.
  Default threshold for basis singularities:  0.1000E-04
  partition_type (choice of integration weights) for integrals was not specified.
  | Using a version of the partition function of Stratmann and coworkers ('stratmann_sparse').
  | At each grid point, the set of atoms used to build the partition table is smoothly restricted to
  | only those atoms whose free-atom density would be non-zero at that grid point.
  Partitioning for Hartree potential was not defined. Using partition_type for integrals.
  | Adjusted default value of keyword multip_moments_threshold to:       0.10000000E-11
  | This value may affect high angular momentum components of the Hartree potential in periodic systems.
  Angular momentum expansion for Kerker preconditioner not set explicitly.
  | Using default value of   0
  No explicit requirement for turning off preconditioner.
  | By default, it will be turned off when the charge convergence reaches
  | sc_accuracy_rho  =   0.100000E-05
  | sc_accuracy_eev  =   0.100000E-02
  | sc_accuracy_etot =   0.100000E-05
  No special mixing parameter while Kerker preconditioner is on.
  Using default: charge_mix_param =     0.0500.
  No q(lm)/r^(l+1) cutoff set for long-range Hartree potential.
  | Using default value of  0.100000E-09 .
  | Verify using the multipole_threshold keyword.
  Defaulting to new monopole extrapolation.
  Density update method: automatic selection selected.
  Using density matrix based charge density update.
 * Warning: DFT+U requires using density matrix based charge density update.
  Using density matrix based charge density update.
  Using packed matrix style: index .
  Defaulting to use time-reversal symmetry for k-point grid.
  Charge integration errors on the 3D integration grid will be compensated
  by explicit normalization and distribution of residual charges.
  Use the "compensate_multipole_errors" flag to change this behaviour.
  Set 'collect_eigenvectors' to be '.true.' for all serial calculations. This is mandatory.
  Set 'collect_eigenvectors' to be '.true.' for KS_method lapack_fast and serial.
 
  Consistency checks for the contents of geometry.in are next.
 

  Range separation radius for Ewald summation (hartree_convergence_parameter):      3.27269809 bohr.
  Number of empty states per atom not set in control.in - providing a guess from actual geometry.
  | Total number of empty states used during s.c.f. cycle:       58
  If you use a very high smearing, use empty_states (per atom!) in control.in to increase this value.

  Structure-dependent array size parameters: 
  | Maximum number of distinct radial functions  :       20
  | Maximum number of basis functions            :      328
  | Number of Kohn-Sham states (occupied + empty):      190
------------------------------------------------------------

------------------------------------------------------------
          Preparing all fixed parts of the calculation.
------------------------------------------------------------
  Determining machine precision:
    2.225073858507201E-308
  Setting up grids for atomic and cluster calculations.

  Creating wave function, potential, and density for free atoms.

  Species: Mo

  List of occupied orbitals and eigenvalues:
    n    l              occ      energy [Ha]    energy [eV]
    1    0           2.0000      -744.270353    -20252.6268
    2    0           2.0000      -103.159815     -2807.1214
    3    0           2.0000       -17.465989      -475.2737
    4    0           2.0000        -2.352267       -64.0084
    5    0           1.0000        -0.144971        -3.9449
    2    1           6.0000       -92.266019     -2510.6861
    3    1           6.0000       -13.913607      -378.6085
    4    1           6.0000        -1.403007       -38.1778
    3    2          10.0000        -8.121664      -221.0017
    4    2           5.0000        -0.131511        -3.5786


  Species: O

  List of occupied orbitals and eigenvalues:
    n    l              occ      energy [Ha]    energy [eV]
    1    0           2.0000       -18.786109      -511.1960
    2    0           2.0000        -0.872635       -23.7456
    2    1           4.0000        -0.337687        -9.1889


  Adding cutoff potential to free-atom effective potential.
  Creating fixed part of basis set: Ionic, confined, hydrogenic.
 
  Mo                   ion:

  List of free ionic orbitals and eigenvalues:
    n    l      energy [Ha]    energy [eV]
    1    0      -744.986513    -20272.1144
    2    0      -103.864343     -2826.2926
    3    0       -18.167662      -494.3672
    4    0        -3.044920       -82.8565
    2    1       -92.970248     -2529.8492
    3    1       -14.615180      -397.6993
    4    1        -2.090292       -56.8797
    3    2        -8.823253      -240.0929
    4    2        -0.773904       -21.0590


  List of ionic basis orbitals and eigenvalues:
    n    l      energy [Ha]    energy [eV]    outer radius [A]
    5    1        -0.468028       -12.7357       4.598077
    5    0        -0.660778       -17.9807       4.542208

 
  Mo                   hydrogenic:
 
  List of hydrogenic basis orbitals: 
    n    l      effective z      eigenvalue [eV]  inner max. [A]     outer max. [A]     outer radius [A]   
    4    3         8.400000       -60.0006           1.009788           1.009788           4.119012
    3    2         2.800000       -11.6571           1.666898           1.666898           4.598077
 
 
  O                    hydrogenic:
 
  List of hydrogenic basis orbitals: 
    n    l      effective z      eigenvalue [eV]  inner max. [A]     outer max. [A]     outer radius [A]   
    2    1         1.800000       -10.9749           1.164242           1.164242           4.578029
    3    2         7.600000       -87.3180           0.624125           0.624125           3.251020
    3    0         6.400000       -61.9207           0.061167           1.081902           4.001998
 
  Creating atomic-like basis functions for current effective potential.

  Species Mo                  :

  List of atomic basis orbitals and eigenvalues:
    n    l      energy [Ha]    energy [eV]    outer radius [A]
    1    0      -744.270353    -20252.6268       0.247552
    2    0      -103.159815     -2807.1214       0.682864
    3    0       -17.465989      -475.2737       1.646644
    4    0        -2.352267       -64.0084       4.019524
    5    0        -0.144971        -3.9449       4.598077
    2    1       -92.266019     -2510.6861       0.699766
    3    1       -13.913607      -378.6085       1.793761
    4    1        -1.403007       -38.1778       4.272881
    3    2        -8.121664      -221.0017       2.181285
    4    2        -0.131511        -3.5786       4.542208


  Species O                   :

  List of atomic basis orbitals and eigenvalues:
    n    l      energy [Ha]    energy [eV]    outer radius [A]
    1    0       -18.786109      -511.1960       1.433179
    2    0        -0.872635       -23.7456       4.413171
    2    1        -0.337687        -9.1889       4.522403

  Assembling full basis from fixed parts.
 * Warning - Since '+U' treatment was requested,
 * the basis-dependent cutoff is turned off automatically.
  | Species Mo :   atomic orbital   1 s accepted.
  | Species Mo :   atomic orbital   2 s accepted.
  | Species Mo :   atomic orbital   3 s accepted.
  | Species Mo :   atomic orbital   4 s accepted.
  | Species Mo :   atomic orbital   5 s accepted.
  | Species Mo :    ionic orbital   5 s accepted.
  | Species Mo :   atomic orbital   2 p accepted.
  | Species Mo :   atomic orbital   3 p accepted.
  | Species Mo :   atomic orbital   4 p accepted.
  | Species Mo :    ionic orbital   5 p accepted.
  | Species Mo :   atomic orbital   3 d accepted.
  | Species Mo :   atomic orbital   4 d accepted.
  | Species Mo :    hydro orbital   3 d accepted.
  | Species Mo :    hydro orbital   4 f accepted.
 * Warning - Since '+U' treatment was requested,
 * the basis-dependent cutoff is turned off automatically.
  | Species O :   atomic orbital   1 s accepted.
  | Species O :   atomic orbital   2 s accepted.
  | Species O :    hydro orbital   3 s accepted.
  | Species O :   atomic orbital   2 p accepted.
  | Species O :    hydro orbital   2 p accepted.
  | Species O :    hydro orbital   3 d accepted.
 
  Basis size parameters after reduction:
  | Total number of radial functions:       20
  | Total number of basis functions :      328
 
  Per-task memory consumption for arrays in subroutine allocate_ext:
  |           7.361568MB.
  Testing on-site integration grid accuracy.
  |  Species  Function  <phi|h_atom|phi> (log., in eV)  <phi|h_atom|phi> (rad., in eV)
           1        1             -20252.6267555834             -20252.5933453298 ***
           1        2              -2807.1213851670              -2807.1209043024
           1        3               -475.2737372046               -475.2737216387
           1        4                -64.0084398884                -64.0084391860
           1        5                 -3.9689103357                 -3.9925762748
           1        6                  7.0990139169                  6.9306799066 ***
           1        7              -2510.6861314810              -2510.6861293032
           1        8               -378.6084979927               -378.6084971797
           1        9                -38.1777730482                -38.1777728279
           1       10                  0.4775754669                  0.4611087391
           1       11               -221.0017165798               -221.0017163007
           1       12                 -3.5813511759                 -3.5840669310
           1       13                  8.0240418542                  7.9738323252 ***
           1       14                 23.3723365126                 23.3723137441
           2       15               -511.1960429777               -511.1959399133
           2       16                -23.7455964041                -23.7455972542
           2       17                 17.3746964700                 17.3748057881
           2       18                 -9.1890598667                 -9.1892026751
           2       19                  8.1915160719                  8.1720639763
           2       20                 45.8005976646                 45.8005620229
 * Note: Onsite integrals marked "***" above are less accurate than
 * onsite_accuracy_threshold =    0.03000 eV. Usually, this is harmless.
 * However, one integral did have a negative value. This integral could be important.
 * When in doubt, tighten the "radial" and/or "radial_multiplier" flags to check.

  Preparing densities etc. for the partition functions (integrals / Hartree potential).

  Preparations completed.
  max(cpu_time)          :      0.501 s.
  Wall clock time (cpu1) :      0.502 s.
------------------------------------------------------------

------------------------------------------------------------
          Begin self-consistency loop: Initialization.

          Date     :  20240509, Time     :  043836.744
------------------------------------------------------------

  Initializing index lists of integration centers etc. from given atomic structure:
  Mapping all atomic coordinates to central unit cell.

  Initializing the k-points
  Using symmetry for reducing the k-points
  | k-points reduced from:      840 to      422
  | Number of k-points                             :       422
  The eigenvectors in the calculations are COMPLEX.
  | K-points in task   0:         5
  | K-points in task   1:         6
  | K-points in task   2:         6
  | K-points in task   3:         6
  | K-points in task   4:         6
  | K-points in task   5:         6
  | K-points in task   6:         6
  | K-points in task   7:         6
  | K-points in task   8:         6
  | K-points in task   9:         6
  | K-points in task  10:         6
  | K-points in task  11:         6
  | K-points in task  12:         6
  | K-points in task  13:         6
  | K-points in task  14:         6
  | K-points in task  15:         6
  | K-points in task  16:         6
  | K-points in task  17:         6
  | K-points in task  18:         6
  | K-points in task  19:         6
  | K-points in task  20:         6
  | K-points in task  21:         6
  | K-points in task  22:         6
  | K-points in task  23:         5
  | K-points in task  24:         5
  | K-points in task  25:         5
  | K-points in task  26:         5
  | K-points in task  27:         5
  | K-points in task  28:         5
  | K-points in task  29:         5
  | K-points in task  30:         5
  | K-points in task  31:         5
  | K-points in task  32:         5
  | K-points in task  33:         5
  | K-points in task  34:         5
  | K-points in task  35:         5
  | K-points in task  36:         5
  | K-points in task  37:         5
  | K-points in task  38:         5
  | K-points in task  39:         5
  | K-points in task  40:         5
  | K-points in task  41:         5
  | K-points in task  42:         5
  | K-points in task  43:         5
  | K-points in task  44:         5
  | K-points in task  45:         5
  | K-points in task  46:         5
  | K-points in task  47:         5
  | K-points in task  48:         5
  | K-points in task  49:         5
  | K-points in task  50:         5
  | K-points in task  51:         5
  | K-points in task  52:         5
  | K-points in task  53:         5
  | K-points in task  54:         5
  | K-points in task  55:         5
  | K-points in task  56:         5
  | K-points in task  57:         5
  | K-points in task  58:         5
  | K-points in task  59:         5
  | K-points in task  60:         5
  | K-points in task  61:         5
  | K-points in task  62:         5
  | K-points in task  63:         5
  | K-points in task  64:         5
  | K-points in task  65:         5
  | K-points in task  66:         5
  | K-points in task  67:         5
  | K-points in task  68:         5
  | K-points in task  69:         5
  | K-points in task  70:         5
  | K-points in task  71:         5
  | K-points in task  72:         5
  | K-points in task  73:         5
  | K-points in task  74:         5
  | K-points in task  75:         5
  | K-points in task  76:         5
  | K-points in task  77:         5
  | K-points in task  78:         5
  | K-points in task  79:         5
  | Number of basis functions in the Hamiltonian integrals :      4200
  | Number of basis functions in a single unit cell        :       328
  | Number of centers in hartree potential         :      1514
  | Number of centers in hartree multipole         :       950
  | Number of centers in electron density summation:       684
  | Number of centers in basis integrals           :       740
  | Number of centers in integrals                 :       316
  | Number of centers in hamiltonian               :       688
  | Consuming        580 KiB for k_phase.
  | Number of super-cells (origin) [n_cells]                     :         495
  | Number of super-cells (after PM_index) [n_cells]             :          88
  | Number of super-cells in hamiltonian [n_cells_in_hamiltonian]:          88
  | Size of matrix packed + index [n_hamiltonian_matrix_size] :      555757
  | Estimated reciprocal-space cutoff momentum G_max:         2.87603147 bohr^-1 .
  | Reciprocal lattice points for long-range Hartree potential:     558
  Partitioning the integration grid into batches with parallel hashing+maxmin method.
  | Number of batches:     1350
  | Maximal batch size:     122
  | Minimal batch size:      56
  | Average batch size:      80.207
  | Standard deviation of batch sizes:      14.672

  Integration load balanced across    80 MPI tasks.
  Work distribution over tasks is as follows:
  Task     0 has       1378 integration points.
  Task     1 has       1360 integration points.
  Task     2 has       1330 integration points.
  Task     3 has       1335 integration points.
  Task     4 has       1381 integration points.
  Task     5 has       1337 integration points.
  Task     6 has       1360 integration points.
  Task     7 has       1362 integration points.
  Task     8 has       1337 integration points.
  Task     9 has       1368 integration points.
  Task    10 has       1337 integration points.
  Task    11 has       1365 integration points.
  Task    12 has       1331 integration points.
  Task    13 has       1380 integration points.
  Task    14 has       1328 integration points.
  Task    15 has       1378 integration points.
  Task    16 has       1339 integration points.
  Task    17 has       1365 integration points.
  Task    18 has       1359 integration points.
  Task    19 has       1361 integration points.
  Task    20 has       1341 integration points.
  Task    21 has       1331 integration points.
  Task    22 has       1384 integration points.
  Task    23 has       1380 integration points.
  Task    24 has       1330 integration points.
  Task    25 has       1374 integration points.
  Task    26 has       1334 integration points.
  Task    27 has       1336 integration points.
  Task    28 has       1315 integration points.
  Task    29 has       1335 integration points.
  Task    30 has       1371 integration points.
  Task    31 has       1371 integration points.
  Task    32 has       1359 integration points.
  Task    33 has       1376 integration points.
  Task    34 has       1315 integration points.
  Task    35 has       1362 integration points.
  Task    36 has       1383 integration points.
  Task    37 has       1376 integration points.
  Task    38 has       1336 integration points.
  Task    39 has       1360 integration points.
  Task    40 has       1363 integration points.
  Task    41 has       1324 integration points.
  Task    42 has       1360 integration points.
  Task    43 has       1323 integration points.
  Task    44 has       1339 integration points.
  Task    45 has       1362 integration points.
  Task    46 has       1358 integration points.
  Task    47 has       1372 integration points.
  Task    48 has       1361 integration points.
  Task    49 has       1361 integration points.
  Task    50 has       1355 integration points.
  Task    51 has       1367 integration points.
  Task    52 has       1384 integration points.
  Task    53 has       1376 integration points.
  Task    54 has       1338 integration points.
  Task    55 has       1368 integration points.
  Task    56 has       1334 integration points.
  Task    57 has       1368 integration points.
  Task    58 has       1370 integration points.
  Task    59 has       1315 integration points.
  Task    60 has       1322 integration points.
  Task    61 has       1333 integration points.
  Task    62 has       1373 integration points.
  Task    63 has       1374 integration points.
  Task    64 has       1325 integration points.
  Task    65 has       1333 integration points.
  Task    66 has       1387 integration points.
  Task    67 has       1360 integration points.
  Task    68 has       1356 integration points.
  Task    69 has       1324 integration points.
  Task    70 has       1374 integration points.
  Task    71 has       1339 integration points.
  Task    72 has       1313 integration points.
  Task    73 has       1365 integration points.
  Task    74 has       1320 integration points.
  Task    75 has       1318 integration points.
  Task    76 has       1378 integration points.
  Task    77 has       1380 integration points.
  Task    78 has       1380 integration points.
  Task    79 has       1368 integration points.
  Initializing partition tables, free-atom densities, potentials, etc. across the integration grid (initialize_grid_storage).
  | initialize_grid_storage: Actual outermost partition radius vs. multipole_radius_free
  | (-- VB: in principle, multipole_radius_free should be larger, hence this output)
  | Species        1: Confinement radius =              4.999999999999999 AA, multipole_radius_free =              5.008883881164426 AA.
  | Species        1: outer_partition_radius set to              5.008883881164426 AA .
  | Species        2: Confinement radius =              4.999999999999999 AA, multipole_radius_free =              5.048384829883283 AA.
  | Species        2: outer_partition_radius set to              5.048384829883283 AA .
  | The sparse table of interatomic distances needs       1710.61 kbyte instead of      4380.80 kbyte of memory.
  | Net number of integration points:   108280
  | of which are non-zero points    :    90336
  | Numerical average free-atom electrostatic potential    :    -14.98545188 eV
  Renormalizing the initial density to the exact electron count on the 3D integration grid.
  | Initial density: Formal number of electrons (from input files) :     264.0000000000
  | Integrated number of electrons on 3D grid     :     263.9990607650
  | Charge integration error                      :      -0.0009392350
  | Normalization factor for density and gradient :       1.0000035577
  Renormalizing the free-atom superposition density to the exact electron count on the 3D integration grid.
  | Formal number of electrons (from input files) :     264.0000000000
  | Integrated number of electrons on 3D grid     :     263.9990607650
  | Charge integration error                      :      -0.0009392350
  | Normalization factor for density and gradient :       1.0000035577
  Obtaining max. number of non-zero basis functions in each batch (get_n_compute_maxes).
  | Maximal number of non-zero basis functions:      649 in task     0
  | Maximal number of non-zero basis functions:      643 in task     1
  | Maximal number of non-zero basis functions:      649 in task     2
  | Maximal number of non-zero basis functions:      625 in task     3
  | Maximal number of non-zero basis functions:      652 in task     4
  | Maximal number of non-zero basis functions:      629 in task     5
  | Maximal number of non-zero basis functions:      642 in task     6
  | Maximal number of non-zero basis functions:      633 in task     7
  | Maximal number of non-zero basis functions:      648 in task     8
  | Maximal number of non-zero basis functions:      623 in task     9
  | Maximal number of non-zero basis functions:      618 in task    10
  | Maximal number of non-zero basis functions:      660 in task    11
  | Maximal number of non-zero basis functions:      643 in task    12
  | Maximal number of non-zero basis functions:      621 in task    13
  | Maximal number of non-zero basis functions:      658 in task    14
  | Maximal number of non-zero basis functions:      623 in task    15
  | Maximal number of non-zero basis functions:      629 in task    16
  | Maximal number of non-zero basis functions:      630 in task    17
  | Maximal number of non-zero basis functions:      670 in task    18
  | Maximal number of non-zero basis functions:      642 in task    19
  | Maximal number of non-zero basis functions:      658 in task    20
  | Maximal number of non-zero basis functions:      635 in task    21
  | Maximal number of non-zero basis functions:      625 in task    22
  | Maximal number of non-zero basis functions:      628 in task    23
  | Maximal number of non-zero basis functions:      642 in task    24
  | Maximal number of non-zero basis functions:      633 in task    25
  | Maximal number of non-zero basis functions:      648 in task    26
  | Maximal number of non-zero basis functions:      652 in task    27
  | Maximal number of non-zero basis functions:      622 in task    28
  | Maximal number of non-zero basis functions:      649 in task    29
  | Maximal number of non-zero basis functions:      629 in task    30
  | Maximal number of non-zero basis functions:      631 in task    31
  | Maximal number of non-zero basis functions:      649 in task    32
  | Maximal number of non-zero basis functions:      629 in task    33
  | Maximal number of non-zero basis functions:      631 in task    34
  | Maximal number of non-zero basis functions:      647 in task    35
  | Maximal number of non-zero basis functions:      646 in task    36
  | Maximal number of non-zero basis functions:      637 in task    37
  | Maximal number of non-zero basis functions:      629 in task    38
  | Maximal number of non-zero basis functions:      650 in task    39
  | Maximal number of non-zero basis functions:      643 in task    40
  | Maximal number of non-zero basis functions:      649 in task    41
  | Maximal number of non-zero basis functions:      628 in task    42
  | Maximal number of non-zero basis functions:      635 in task    43
  | Maximal number of non-zero basis functions:      643 in task    44
  | Maximal number of non-zero basis functions:      647 in task    45
  | Maximal number of non-zero basis functions:      646 in task    46
  | Maximal number of non-zero basis functions:      670 in task    47
  | Maximal number of non-zero basis functions:      640 in task    48
  | Maximal number of non-zero basis functions:      649 in task    49
  | Maximal number of non-zero basis functions:      650 in task    50
  | Maximal number of non-zero basis functions:      652 in task    51
  | Maximal number of non-zero basis functions:      629 in task    52
  | Maximal number of non-zero basis functions:      643 in task    53
  | Maximal number of non-zero basis functions:      638 in task    54
  | Maximal number of non-zero basis functions:      629 in task    55
  | Maximal number of non-zero basis functions:      647 in task    56
  | Maximal number of non-zero basis functions:      652 in task    57
  | Maximal number of non-zero basis functions:      655 in task    58
  | Maximal number of non-zero basis functions:      657 in task    59
  | Maximal number of non-zero basis functions:      670 in task    60
  | Maximal number of non-zero basis functions:      623 in task    61
  | Maximal number of non-zero basis functions:      630 in task    62
  | Maximal number of non-zero basis functions:      618 in task    63
  | Maximal number of non-zero basis functions:      650 in task    64
  | Maximal number of non-zero basis functions:      643 in task    65
  | Maximal number of non-zero basis functions:      646 in task    66
  | Maximal number of non-zero basis functions:      630 in task    67
  | Maximal number of non-zero basis functions:      663 in task    68
  | Maximal number of non-zero basis functions:      627 in task    69
  | Maximal number of non-zero basis functions:      631 in task    70
  | Maximal number of non-zero basis functions:      642 in task    71
  | Maximal number of non-zero basis functions:      626 in task    72
  | Maximal number of non-zero basis functions:      636 in task    73
  | Maximal number of non-zero basis functions:      655 in task    74
  | Maximal number of non-zero basis functions:      627 in task    75
  | Maximal number of non-zero basis functions:      629 in task    76
  | Maximal number of non-zero basis functions:      634 in task    77
  | Maximal number of non-zero basis functions:      630 in task    78
  | Maximal number of non-zero basis functions:      613 in task    79
  Allocating        4.755 MB for KS_eigenvector_complex
  Integrating Hamiltonian matrix: batch-based integration.
  Time summed over all CPUs for integration: real work       10.221 s, elapsed       10.973 s
  Integrating overlap matrix.
  Time summed over all CPUs for integration: real work        6.571 s, elapsed        7.255 s
  Decreasing sparse matrix size:
  | Tolerance:  0.1000E-12
  Hamiltonian matrix
  | Array has   478260 nonzero elements out of   555757 elements
  | Sparsity factor is 0.139
  Overlap matrix
  | Array has   442056 nonzero elements out of   555757 elements
  | Sparsity factor is 0.205
  New size of hamiltonian matrix:      478407

  Updating Kohn-Sham eigenvalues and eigenvectors using ELSI and the (modified) LAPACK eigensolver.
  Singularity check in k-point 80, task 0 (analysis for other k-points/tasks may follow below):
  Overlap matrix is not singular
  | Lowest and highest eigenvalues :  0.1791E-02,  0.6946E+01
  Finished singularity check of overlap matrix
  | Time :     0.022 s
  Starting LAPACK eigensolver
  Finished Cholesky decomposition
  | Time :     0.003 s
  Finished transformation to standard eigenproblem
  | Time :     0.007 s
  Finished solving standard eigenproblem
  | Time :     0.022 s
  Finished back-transformation of eigenvectors
  | Time :     0.003 s

  Obtaining occupation numbers and chemical potential using ELSI.
  | Chemical potential (Fermi level):    -4.50118308 eV
  Writing Kohn-Sham eigenvalues.
  K-point:       1 at    0.000000    0.000000    0.000000 (in units of recip. lattice)

  State    Occupation    Eigenvalue [Ha]    Eigenvalue [eV]
      1       2.00000        -744.281963       -20252.94266
      2       2.00000        -744.281963       -20252.94266
      3       2.00000        -744.281962       -20252.94266
      4       2.00000        -744.281962       -20252.94266
      5       2.00000        -103.171648        -2807.44338
      6       2.00000        -103.171648        -2807.44338
      7       2.00000        -103.171648        -2807.44338
      8       2.00000        -103.171648        -2807.44338
      9       2.00000         -92.277844        -2511.00789
     10       2.00000         -92.277844        -2511.00789
     11       2.00000         -92.277844        -2511.00789
     12       2.00000         -92.277844        -2511.00789
     13       2.00000         -92.277795        -2511.00656
     14       2.00000         -92.277795        -2511.00656
     15       2.00000         -92.277795        -2511.00655
     16       2.00000         -92.277795        -2511.00655
     17       2.00000         -92.277762        -2511.00565
     18       2.00000         -92.277762        -2511.00565
     19       2.00000         -92.277761        -2511.00565
     20       2.00000         -92.277761        -2511.00565
     21       2.00000         -18.863292         -513.29630
     22       2.00000         -18.863292         -513.29630
     23       2.00000         -18.863292         -513.29630
     24       2.00000         -18.863292         -513.29630
     25       2.00000         -18.862603         -513.27753
     26       2.00000         -18.862602         -513.27752
     27       2.00000         -18.862600         -513.27747
     28       2.00000         -18.862600         -513.27747
     29       2.00000         -18.859372         -513.18963
     30       2.00000         -18.859372         -513.18963
     31       2.00000         -18.859372         -513.18963
     32       2.00000         -18.859372         -513.18963
     33       2.00000         -17.479590         -475.64385
     34       2.00000         -17.479590         -475.64385
     35       2.00000         -17.479590         -475.64385
     36       2.00000         -17.479590         -475.64385
     37       2.00000         -13.927770         -378.99389
     38       2.00000         -13.927770         -378.99389
     39       2.00000         -13.927769         -378.99389
     40       2.00000         -13.927769         -378.99389
     41       2.00000         -13.927215         -378.97882
     42       2.00000         -13.927215         -378.97881
     43       2.00000         -13.927215         -378.97881
     44       2.00000         -13.927215         -378.97881
     45       2.00000         -13.926839         -378.96857
     46       2.00000         -13.926839         -378.96857
     47       2.00000         -13.926839         -378.96857
     48       2.00000         -13.926839         -378.96857
     49       2.00000          -8.135750         -221.38502
     50       2.00000          -8.135750         -221.38502
     51       2.00000          -8.135750         -221.38502
     52       2.00000          -8.135750         -221.38501
     53       2.00000          -8.135565         -221.37998
     54       2.00000          -8.135565         -221.37998
     55       2.00000          -8.135564         -221.37997
     56       2.00000          -8.135564         -221.37997
     57       2.00000          -8.135255         -221.37156
     58       2.00000          -8.135255         -221.37156
     59       2.00000          -8.135255         -221.37155
     60       2.00000          -8.135255         -221.37155
     61       2.00000          -8.134964         -221.36364
     62       2.00000          -8.134964         -221.36364
     63       2.00000          -8.134964         -221.36364
     64       2.00000          -8.134964         -221.36364
     65       2.00000          -8.134906         -221.36204
     66       2.00000          -8.134906         -221.36204
     67       2.00000          -8.134905         -221.36204
     68       2.00000          -8.134905         -221.36204
     69       2.00000          -2.390604          -65.05165
     70       2.00000          -2.390602          -65.05160
     71       2.00000          -2.390316          -65.04380
     72       2.00000          -2.390315          -65.04378
     73       2.00000          -1.488443          -40.50260
     74       2.00000          -1.488131          -40.49409
     75       2.00000          -1.486184          -40.44113
     76       2.00000          -1.485887          -40.43306
     77       2.00000          -1.465179          -39.86956
     78       2.00000          -1.465140          -39.86848
     79       2.00000          -1.463370          -39.82031
     80       2.00000          -1.463292          -39.81819
     81       2.00000          -1.447095          -39.37747
     82       2.00000          -1.447075          -39.37690
     83       2.00000          -1.445813          -39.34256
     84       2.00000          -1.445793          -39.34204
     85       2.00000          -1.014516          -27.60637
     86       2.00000          -1.012038          -27.53897
     87       2.00000          -0.991969          -26.99284
     88       2.00000          -0.991502          -26.98013
     89       2.00000          -0.978269          -26.62004
     90       2.00000          -0.977773          -26.60655
     91       2.00000          -0.977725          -26.60524
     92       2.00000          -0.976322          -26.56707
     93       2.00000          -0.959038          -26.09676
     94       2.00000          -0.957225          -26.04741
     95       2.00000          -0.939808          -25.57347
     96       2.00000          -0.938510          -25.53817
     97       2.00000          -0.534449          -14.54309
     98       2.00000          -0.522383          -14.21476
     99       2.00000          -0.512517          -13.94630
    100       2.00000          -0.509312          -13.85908
    101       2.00000          -0.484474          -13.18322
    102       2.00000          -0.482478          -13.12889
    103       2.00000          -0.476405          -12.96364
    104       2.00000          -0.476118          -12.95583
    105       2.00000          -0.467556          -12.72286
    106       2.00000          -0.466804          -12.70237
    107       2.00000          -0.465681          -12.67184
    108       2.00000          -0.462791          -12.59317
    109       2.00000          -0.458298          -12.47093
    110       2.00000          -0.452238          -12.30603
    111       2.00000          -0.451339          -12.28155
    112       2.00000          -0.447013          -12.16384
    113       2.00000          -0.442756          -12.04800
    114       2.00000          -0.441244          -12.00685
    115       2.00000          -0.438946          -11.94433
    116       2.00000          -0.438451          -11.93085
    117       2.00000          -0.437691          -11.91017
    118       2.00000          -0.437223          -11.89744
    119       2.00000          -0.436994          -11.89122
    120       2.00000          -0.432281          -11.76298
    121       2.00000          -0.431562          -11.74339
    122       2.00000          -0.430452          -11.71321
    123       2.00000          -0.428041          -11.64760
    124       2.00000          -0.427980          -11.64594
    125       2.00000          -0.425465          -11.57749
    126       2.00000          -0.418500          -11.38796
    127       2.00000          -0.416328          -11.32887
    128       2.00000          -0.412845          -11.23408
    129       2.00000          -0.412408          -11.22220
    130       2.00000          -0.411645          -11.20144
    131       2.00000          -0.410170          -11.16129
    132       2.00000          -0.408986          -11.12908
    133       0.00000          -0.151210           -4.11463
    134       0.00000          -0.150799           -4.10345
    135       0.00000          -0.144837           -3.94120
    136       0.00000          -0.144035           -3.91939
    137       0.00000          -0.112946           -3.07343
    138       0.00000          -0.107810           -2.93366
    139       0.00000          -0.096103           -2.61509
    140       0.00000          -0.093860           -2.55405
    141       0.00000          -0.067180           -1.82807
    142       0.00000          -0.066139           -1.79974
    143       0.00000          -0.065068           -1.77060
    144       0.00000          -0.061205           -1.66548
    145       0.00000          -0.058990           -1.60521
    146       0.00000          -0.049568           -1.34880
    147       0.00000          -0.042801           -1.16467
    148       0.00000          -0.040762           -1.10920
    149       0.00000          -0.020930           -0.56954
    150       0.00000          -0.018932           -0.51516
    151       0.00000          -0.014181           -0.38590
    152       0.00000          -0.011065           -0.30109
    153       0.00000           0.023923            0.65099
    154       0.00000           0.038913            1.05889
    155       0.00000           0.043245            1.17676
    156       0.00000           0.094420            2.56930
    157       0.00000           0.102913            2.80040
    158       0.00000           0.178461            4.85618
    159       0.00000           0.198691            5.40665
    160       0.00000           0.230420            6.27005
    161       0.00000           0.254125            6.91509
    162       0.00000           0.256062            6.96779
    163       0.00000           0.289040            7.86517
    164       0.00000           0.299461            8.14874
    165       0.00000           0.315203            8.57712
    166       0.00000           0.329073            8.95452
    167       0.00000           0.334193            9.09387
    168       0.00000           0.335970            9.14220
    169       0.00000           0.352111            9.58142
    170       0.00000           0.355805            9.68194
    171       0.00000           0.356114            9.69035
    172       0.00000           0.387836           10.55356
    173       0.00000           0.388138           10.56176
    174       0.00000           0.400436           10.89641
    175       0.00000           0.420184           11.43378
    176       0.00000           0.420227           11.43496
    177       0.00000           0.423027           11.51114
    178       0.00000           0.444598           12.09813
    179       0.00000           0.475250           12.93221
    180       0.00000           0.490055           13.33508
    181       0.00000           0.522946           14.23009
    182       0.00000           0.557732           15.17667
    183       0.00000           0.560662           15.25638
    184       0.00000           0.573852           15.61530
    185       0.00000           0.604846           16.45869
    186       0.00000           0.637722           17.35329
    187       0.00000           0.645309           17.55975
    188       0.00000           0.649982           17.68692
    189       0.00000           0.650635           17.70469
    190       0.00000           0.664646           18.08595

  What follows are estimated values for band gap, HOMO, LUMO, etc.
  | They are estimated on a discrete k-point grid and not necessarily exact.
  | For converged numbers, create a DOS and/or band structure plot on a denser k-grid.

  Highest occupied state (VBM) at    -10.59231164 eV (relative to internal zero)
  | Occupation number:      2.00000000
  | K-point:     307 at    0.500000    0.000000    0.466667 (in units of recip. lattice)

  Lowest unoccupied state (CBM) at    -4.11463446 eV (relative to internal zero)
  | Occupation number:      0.00000005
  | K-point:       1 at    0.000000    0.000000    0.000000 (in units of recip. lattice)

  ESTIMATED overall HOMO-LUMO gap:      6.47767718 eV between HOMO at k-point 307 and LUMO at k-point 1
  | This appears to be an indirect band gap.
  | Smallest direct gap :      7.01444184 eV for k_point 1 at    0.000000    0.000000    0.000000 (in units of recip. lattice)
  The gap value is above 0.2 eV. Unless you are using a very sparse k-point grid,
  this system is most likely an insulator or a semiconductor.
  Calculating total energy contributions from superposition of free atom densities.

  Total energy components:
  | Sum of eigenvalues            :      -10357.07917061 Ha     -281830.46360837 eV
  | XC energy correction          :        -575.54105006 Ha      -15661.26880859 eV
  | XC potential correction       :         762.19381302 Ha       20740.34890963 eV
  | Free-atom electrostatic energy:       -7063.36205157 Ha     -192203.86064809 eV
  | Hartree energy correction     :           0.00000000 Ha           0.00000000 eV
  | DFT+U energy correction       :           0.00000000 Ha           0.00000000 eV
  | Entropy correction            :          -0.00000000 Ha          -0.00000000 eV
  | ---------------------------
  | Total energy                  :      -17233.78845922 Ha     -468955.24415541 eV
  | Total energy, T -> 0          :      -17233.78845922 Ha     -468955.24415541 eV  <-- do not rely on this value for anything but (periodic) metals
  | Electronic free energy        :      -17233.78845922 Ha     -468955.24415541 eV

  Derived energy quantities:
  | Kinetic energy                :       17730.61495548 Ha      482474.58097511 eV
[...]
     72       2.00000          -2.640629          -71.85518
     73       2.00000          -1.675283          -45.58676
     74       2.00000          -1.675156          -45.58332
     75       2.00000          -1.673496          -45.53813
     76       2.00000          -1.673376          -45.53487
     77       2.00000          -1.667242          -45.36797
     78       2.00000          -1.667222          -45.36743
     79       2.00000          -1.666446          -45.34631
     80       2.00000          -1.666442          -45.34620
     81       2.00000          -1.659234          -45.15006
     82       2.00000          -1.659215          -45.14954
     83       2.00000          -1.658396          -45.12726
     84       2.00000          -1.658376          -45.12670
     85       2.00000          -1.018090          -27.70363
     86       2.00000          -1.016445          -27.65889
     87       2.00000          -0.995023          -27.07596
     88       2.00000          -0.994849          -27.07123
     89       2.00000          -0.985345          -26.81260
     90       2.00000          -0.985192          -26.80843
     91       2.00000          -0.984560          -26.79123
     92       2.00000          -0.982943          -26.74724
     93       2.00000          -0.969526          -26.38215
     94       2.00000          -0.968624          -26.35759
     95       2.00000          -0.950182          -25.85577
     96       2.00000          -0.949776          -25.84471
     97       2.00000          -0.515527          -14.02820
     98       2.00000          -0.506393          -13.77965
     99       2.00000          -0.504095          -13.71712
    100       2.00000          -0.503576          -13.70299
    101       2.00000          -0.459566          -12.50542
    102       2.00000          -0.458471          -12.47563
    103       2.00000          -0.458405          -12.47383
    104       2.00000          -0.451023          -12.27295
    105       2.00000          -0.447424          -12.17501
    106       2.00000          -0.441890          -12.02445
    107       2.00000          -0.437416          -11.90270
    108       2.00000          -0.435990          -11.86389
    109       2.00000          -0.410410          -11.16783
    110       2.00000          -0.407831          -11.09766
    111       2.00000          -0.406709          -11.06712
    112       2.00000          -0.406015          -11.04823
    113       2.00000          -0.402887          -10.96311
    114       2.00000          -0.402176          -10.94376
    115       2.00000          -0.401328          -10.92068
    116       2.00000          -0.400048          -10.88587
    117       2.00000          -0.396560          -10.79094
    118       2.00000          -0.396112          -10.77876
    119       2.00000          -0.393915          -10.71897
    120       2.00000          -0.390738          -10.63253
    121       2.00000          -0.384224          -10.45526
    122       2.00000          -0.382044          -10.39594
    123       2.00000          -0.374259          -10.18410
    124       2.00000          -0.371203          -10.10094
    125       2.00000          -0.370586          -10.08415
    126       2.00000          -0.369429          -10.05267
    127       2.00000          -0.362805           -9.87243
    128       2.00000          -0.353371           -9.61573
    129       2.00000          -0.352038           -9.57944
    130       2.00000          -0.351165           -9.55568
    131       2.00000          -0.346802           -9.43695
    132       2.00000          -0.346491           -9.42850
    133       0.00000          -0.221020           -6.01427
    134       0.00000          -0.220484           -5.99969
    135       0.00000          -0.218403           -5.94306
    136       0.00000          -0.218291           -5.94001
    137       0.00000          -0.168725           -4.59125
    138       0.00000          -0.162874           -4.43204
    139       0.00000          -0.159336           -4.33575
    140       0.00000          -0.152353           -4.14573
    141       0.00000          -0.130363           -3.54736
    142       0.00000          -0.128173           -3.48776
    143       0.00000          -0.121178           -3.29743
    144       0.00000          -0.119876           -3.26199
    145       0.00000          -0.109020           -2.96658
    146       0.00000          -0.106931           -2.90975
    147       0.00000          -0.103187           -2.80787
    148       0.00000          -0.101375           -2.75855
    149       0.00000          -0.065972           -1.79520
    150       0.00000          -0.046626           -1.26876
    151       0.00000          -0.031297           -0.85163
    152       0.00000          -0.009893           -0.26920
    153       0.00000           0.003711            0.10099
    154       0.00000           0.055389            1.50721
    155       0.00000           0.057362            1.56089
    156       0.00000           0.140207            3.81522
    157       0.00000           0.171649            4.67080
    158       0.00000           0.239075            6.50555
    159       0.00000           0.244923            6.66471
    160       0.00000           0.276001            7.51037
    161       0.00000           0.283542            7.71557
    162       0.00000           0.292915            7.97062
    163       0.00000           0.305041            8.30060
    164       0.00000           0.321274            8.74232
    165       0.00000           0.374319           10.18574
    166       0.00000           0.384041           10.45027
    167       0.00000           0.393648           10.71170
    168       0.00000           0.412537           11.22570
    169       0.00000           0.417540           11.36183
    170       0.00000           0.419075           11.40362
    171       0.00000           0.420483           11.44192
    172       0.00000           0.420798           11.45049
    173       0.00000           0.436960           11.89029
    174       0.00000           0.454098           12.35663
    175       0.00000           0.455771           12.40216
    176       0.00000           0.456223           12.41445
    177       0.00000           0.460798           12.53896
    178       0.00000           0.472337           12.85296
    179       0.00000           0.481302           13.09690
    180       0.00000           0.508825           13.84583
    181       0.00000           0.549949           14.96486
    182       0.00000           0.556106           15.13242
    183       0.00000           0.578542           15.74292
    184       0.00000           0.613315           16.68914
    185       0.00000           0.641671           17.46075
    186       0.00000           0.674722           18.36012
    187       0.00000           0.678314           18.45786
    188       0.00000           0.682623           18.57513
    189       0.00000           0.692270           18.83762
    190       0.00000           0.693930           18.88281

  What follows are estimated values for band gap, HOMO, LUMO, etc.
  | They are estimated on a discrete k-point grid and not necessarily exact.
  | For converged numbers, create a DOS and/or band structure plot on a denser k-grid.

  Highest occupied state (VBM) at     -8.61604682 eV (relative to internal zero)
  | Occupation number:      2.00000000
  | K-point:     307 at    0.500000    0.000000    0.466667 (in units of recip. lattice)

  Lowest unoccupied state (CBM) at    -6.01426756 eV (relative to internal zero)
  | Occupation number:      0.00000005
  | K-point:       1 at    0.000000    0.000000    0.000000 (in units of recip. lattice)

  ESTIMATED overall HOMO-LUMO gap:      2.60177925 eV between HOMO at k-point 307 and LUMO at k-point 1
  | This appears to be an indirect band gap.
  | Smallest direct gap :      3.41423099 eV for k_point 1 at    0.000000    0.000000    0.000000 (in units of recip. lattice)
  The gap value is above 0.2 eV. Unless you are using a very sparse k-point grid,
  this system is most likely an insulator or a semiconductor.

  Self-consistency cycle converged.

  End self-consistency iteration #    31       :  max(cpu_time)    wall_clock(cpu1)
  | Time for this iteration                    :        0.871 s           0.866 s
  | Charge density & force component update    :        0.000 s           0.000 s
  | Density mixing                             :        0.009 s           0.000 s
  | Hartree multipole update                   :        0.002 s           0.001 s
  | Hartree multipole summation                :        0.359 s           0.360 s
  | Integration                                :        0.212 s           0.212 s
  | Solution of K.-S. eqns.                    :        0.285 s           0.285 s
  | Total energy evaluation                    :        0.003 s           0.003 s

  Partial memory accounting:
  | Current value for overall tracked memory usage:
  |   Minimum:       13.881 MB (on task  0)
  |   Maximum:       14.832 MB (on task  1)
  |   Average:       14.143 MB
  | Peak value for overall tracked memory usage:
  |   Minimum:       28.159 MB (on task 79 after allocating d_wave)
  |   Maximum:       30.729 MB (on task 18 after allocating d_wave)
  |   Average:       29.177 MB
  | Largest tracked array allocation so far:
  |   Minimum:        4.755 MB (KS_eigenvector_complex on task  0)
  |   Maximum:        5.706 MB (KS_eigenvector_complex on task  1)
  |   Average:        5.016 MB
  Note:  These values currently only include a subset of arrays which are explicitly tracked.
  The "true" memory usage will be greater.
------------------------------------------------------------
  Removing unitary transformations (pure translations, rotations) from forces on atoms.
  Atomic forces before filtering:
  | Net force on center of mass :  -0.111350E-05  0.473427E-05  0.789553E-06 eV/A
  Atomic forces after filtering:
  | Net force on center of mass :   0.000000E+00  0.000000E+00 -0.106338E-21 eV/A

  Energy and forces in a compact form:
  | Total energy uncorrected      :         -0.470052113554072E+06 eV
  | Total energy corrected        :         -0.470052113554073E+06 eV  <-- do not rely on this value for anything but (periodic) metals
  | Electronic free energy        :         -0.470052113554073E+06 eV
  Total atomic forces (unitary forces cleaned) [eV/Ang]:
  |    1         -0.613310303890739E-02         -0.446508282013783E-03          0.467485971608309E-06
  |    2          0.619812547054679E-02         -0.111888157704599E-02          0.673055783342057E-06
  |    3          0.619468046657503E-02          0.107351558915322E-02         -0.344092801964112E-06
  |    4         -0.613619965144572E-02          0.493700353733212E-03         -0.359680595808116E-06
  |    5         -0.216785187041909E-02          0.467741144599045E-02          0.146065867509289E-05
  |    6          0.217387656232106E-02          0.461318921895427E-02          0.171325079368790E-05
  |    7          0.217451261923752E-02         -0.460918968127248E-02         -0.165594044072237E-05
  |    8         -0.216711554738840E-02         -0.468234735624615E-02         -0.190769034492157E-05
  |    9          0.308200558293853E-03         -0.121665196653426E-02          0.149985046070635E-06
  |   10         -0.325453208553773E-03         -0.116931581233376E-02          0.227663539504719E-06
  |   11         -0.324955482095645E-03          0.117136605997049E-02         -0.161380445454419E-06
  |   12          0.308776477691325E-03          0.121375399677603E-02         -0.670090346020792E-07
  |   13         -0.487614287422526E-02          0.477896812673402E-03         -0.224628129325143E-06
  |   14          0.482045721664904E-02          0.104319950322996E-02         -0.139803044626212E-06
  |   15          0.482448505698307E-02         -0.100331319072055E-02          0.793399955970543E-07
  |   16         -0.487229275526241E-02         -0.517825114314054E-03          0.887850325204491E-07

  ------------------------------------ 
  Start decomposition of the XC Energy 
  ------------------------------------ 
  X and C from original XC functional choice 
  Hartree-Fock Energy :          0.000000000 Ha              0.000000000 eV
  X Energy            :       -604.592833949 Ha         -16451.808070533 eV
  C Energy            :        -13.749075170 Ha           -374.131370977 eV
  Total XC Energy     :       -618.341909119 Ha         -16825.939441511 eV
  ------------------------------------ 
  LDA X and C from self-consistent density 
  X Energy LDA        :       -554.266393026 Ha         -15082.355936063 eV
  C Energy LDA        :        -22.400884301 Ha           -609.559075849 eV
  ------------------------------------ 
  End decomposition of the XC Energy 
  ------------------------------------ 

------------------------------------------------------------

------------------------------------------------------------------------------
  Final output of selected total energy values:

  The following output summarizes some interesting total energy values
  at the end of a run (AFTER all relaxation, molecular dynamics, etc.).

  | Total energy of the DFT / Hartree-Fock s.c.f. calculation      :        -470052.113554072 eV
  | Final zero-broadening corrected energy (caution - metals only) :        -470052.113554073 eV
  | For reference only, the value of 1 Hartree used in FHI-aims is :             27.211384500 eV
  | For reference only, the overall average (free atom contribution
  | + realspace contribution) of the electrostatic potential after
  | s.c.f. convergence is                                          :            -14.396995568 eV

  Before relying on these values, please be sure to understand exactly which
  total energy value is referred to by a given number. Different objects may
  all carry the same name 'total energy'. Definitions:

  Total energy of the DFT / Hartree-Fock s.c.f. calculation:
  | Note that this energy does not include ANY quantities calculated after the
  | s.c.f. cycle, in particular not ANY RPA, MP2, etc. many-body perturbation terms.

  Final zero-broadening corrected energy:
  | For metallic systems only, a broadening of the occupation numbers at the Fermi
  | level can be extrapolated back to zero broadening by an electron-gas inspired
  | formula. For all systems that are not real metals, this value can be
  | meaningless and should be avoided.

------------------------------------------------------------------------------
  Methods described in the following list of references were used in this FHI-aims run.
  If you publish the results, please make sure to cite these reference if they apply.
  FHI-aims is an academic code, and for our developers (often, Ph.D. students
  and postdocs), scientific credit in the community is essential.
  Thank you for helping us!

  For any use of FHI-aims, please cite:

    Volker Blum, Ralf Gehrke, Felix Hanke, Paula Havu, Ville Havu,
    Xinguo Ren, Karsten Reuter, and Matthias Scheffler
    'Ab initio molecular simulations with numeric atom-centered orbitals'
    Computer Physics Communications 180, 2175-2196 (2009)
    http://dx.doi.org/10.1016/j.cpc.2009.06.022


  The provided symmetry information was generated with SPGlib:

    Atsushi Togo, Yusuke Seto, Dimitar Pashov
    SPGlib 1.7.3 obtained from http://spglib.sourceforge.net
    Copyright (C) 2008 Atsushi Togo


 DFT+U infrastructure was used in your run
 please cite:

 Matthias Kick, Karsten Reuter and Harald Oberhofer,
 Intricacies Of DFT+U, not only in a Numeric Atom Centered Orbital Framework

 Journal of Chemical Theory and Computation
 https://


  The ELSI infrastructure was used in your run to solve the Kohn-Sham electronic structure.
  Please check out http://elsi-interchange.org to learn more.
  If scalability is important for your project, please acknowledge ELSI by citing:

    V. W-z. Yu, F. Corsetti, A. Garcia, W. P. Huhn, M. Jacquelin, W. Jia,
    B. Lange, L. Lin, J. Lu, W. Mi, A. Seifitokaldani, A. Vazquez-Mayagoitia,
    C. Yang, H. Yang, and V. Blum
    'ELSI: A unified software interface for Kohn-Sham electronic structure solvers'
    Computer Physics Communications 222, 267-285 (2018).
    http://dx.doi.org/10.1016/j.cpc.2017.09.007


  For the real-space grid partitioning and parallelization used in this calculation, please cite:

    Ville Havu, Volker Blum, Paula Havu, and Matthias Scheffler,
    'Efficient O(N) integration for all-electron electronic structure calculation'
    'using numerically tabulated basis functions'
    Journal of Computational Physics 228, 8367-8379 (2009).
    http://dx.doi.org/10.1016/j.jcp.2009.08.008

  Of course, there are many other important community references, e.g., those cited in the
  above references. Our list is limited to references that describe implementations in the
  FHI-aims code. The reason is purely practical (length of this list) - please credit others as well.

 * A warning was issued further up regarding the accuracy of onsite integrals.
   An integral with a negative eigenvalue was among the flagged integrals.
   In most standard situations, this warning is probably harmless.
   If needed, this can be verified by adjusting the radial_multiplier flag.

------------------------------------------------------------
          Leaving FHI-aims.
          Date     :  20240509, Time     :  043914.993

          Computational steps:
          | Number of self-consistency cycles          :           31
          | Number of SCF (re)initializations          :            1

          Detailed time accounting                     :  max(cpu_time)    wall_clock(cpu1)
          | Total time                                 :       38.564 s          39.003 s
          | Preparation time                           :        0.501 s           0.502 s
          | Boundary condition initalization           :        0.223 s           0.223 s
          | Grid partitioning                          :        0.059 s           0.059 s
          | Preloading free-atom quantities on grid    :        0.135 s           0.136 s
          | Free-atom superposition energy             :        0.013 s           0.013 s
          | Total time for integrations                :        7.164 s           7.178 s
          | Total time for solution of K.-S. equations :        9.540 s           9.561 s
          | Total time for density & force components  :       12.027 s          12.043 s
          | Total time for mixing & preconditioning    :        3.512 s           3.301 s
          | Total time for Hartree multipole update    :        0.056 s           0.068 s
          | Total time for Hartree multipole sum       :        4.641 s           4.658 s
          | Total time for total energy evaluation     :        0.178 s           0.130 s
          | Total time for scaled ZORA corrections     :        0.000 s           0.000 s

          Partial memory accounting:
          | Residual value for overall tracked memory usage across tasks:     0.000000 MB (should be 0.000000 MB)
          | Peak values for overall tracked memory usage:
          |   Minimum:       28.159 MB (on task 79 after allocating d_wave)
          |   Maximum:       30.729 MB (on task 18 after allocating d_wave)
          |   Average:       29.177 MB
          | Largest tracked array allocation:
          |   Minimum:        4.755 MB (KS_eigenvector_complex on task  0)
          |   Maximum:        5.706 MB (KS_eigenvector_complex on task  1)
          |   Average:        5.016 MB
          Note:  These values currently only include a subset of arrays which are explicitly tracked.
          The "true" memory usage will be greater.

          Have a nice day.
------------------------------------------------------------
