------------------------------------------------------------
          Invoking FHI-aims ...

          When using FHI-aims, please cite the following reference:

            Volker Blum, Ralf Gehrke, Felix Hanke, Paula Havu,
            Ville Havu, Xinguo Ren, Karsten Reuter, and Matthias Scheffler,
            'Ab Initio Molecular Simulations with Numeric Atom-Centered Orbitals',
            Computer Physics Communications 180, 2175-2196 (2009)

          In addition, many other developments in FHI-aims are likely important for
          your particular application. A partial list of references is given at the end of
          this file. Thank you for giving credit to the authors of these developments.

          For any questions about FHI-aims, please visit our slack channel at

            https://fhi-aims.slack.com

          and our main development and support site at

            https://aims-git.rz-berlin.mpg.de .

          The latter site, in particular, has a wiki to collect information, as well
          as an issue tracker to log discussions, suggest improvements, and report issues
          or bugs. https://aims-git.rz-berlin.mpg.de is also the main development site
          of the project and all new and updated code versions can be obtained there.
          Please send an email to aims-coordinators@fhi-berlin.mpg.de and we will add
          you to these sites. They are for you and everyone is welcome there.

------------------------------------------------------------



  Date     :  20240509, Time     :  055320.107
  Time zero on CPU 1             :   0.258599000000000E+00  s.
  Internal wall clock time zero  :           484466000.107  s.

  FHI-aims created a unique identifier for this run for later identification
  aims_uuid : F44AC68C-6521-4796-ADB6-B04A924E61D1

  Build configuration of the current instance of FHI-aims
  -------------------------------------------------------
  FHI-aims version      : 210309
  Commit number         : 8cf946fba
  CMake host system     : Linux-3.10.0-1127.13.1.el7.x86_64
  CMake version         : 3.17.3
  Fortran compiler      : /apps/compilers/intel/2018.2/compilers_and_libraries_2018/linux/mpi/intel64/bin/mpiifort (Intel) version 18.0.2.20180210
  Fortran compiler flags: -O3 -fp-model precise
  C compiler            : /apps/compilers/intel/2018.2/compilers_and_libraries_2018/linux/mpi/intel64/bin/mpicc (Intel) version 18.0.2.20180210
  C compiler flags      : -O3 -ip -fp-model precise -std=gnu99
  Using MPI
  Using ScaLAPACK
  Using LibXC
  Using i-PI
  Using RLSY
  Linking against: /apps/compilers/intel/2018.2/compilers_and_libraries_2018/linux/mkl/lib/intel64/libmkl_scalapack_lp64.so
                   /apps/compilers/intel/2018.2/compilers_and_libraries_2018/linux/mkl/lib/intel64/libmkl_blacs_intelmpi_lp64.so
                   /apps/compilers/intel/2018.2/compilers_and_libraries_2018/linux/mkl/lib/intel64/libmkl_intel_lp64.so
                   /apps/compilers/intel/2018.2/compilers_and_libraries_2018/linux/mkl/lib/intel64/libmkl_intel_thread.so
                   /apps/compilers/intel/2018.2/compilers_and_libraries_2018/linux/mkl/lib/intel64/libmkl_core.so
                   /usr/lib64/libpthread.so
                   /home/scw1057/software/libxc/libxc-4.3.4/lib/libxcf03.so
                   /home/scw1057/software/libxc/libxc-4.3.4/lib/libxcf90.so
                   /home/scw1057/software/libxc/libxc-4.3.4/lib/libxc.so

  Using       80 parallel tasks.
  Task        0 on host ccs0110 reporting.
  Task        1 on host ccs0110 reporting.
  Task        2 on host ccs0110 reporting.
  Task        3 on host ccs0110 reporting.
  Task        4 on host ccs0110 reporting.
  Task        5 on host ccs0110 reporting.
  Task        6 on host ccs0110 reporting.
  Task        7 on host ccs0110 reporting.
  Task        8 on host ccs0110 reporting.
  Task        9 on host ccs0110 reporting.
  Task       10 on host ccs0110 reporting.
  Task       11 on host ccs0110 reporting.
  Task       12 on host ccs0110 reporting.
  Task       13 on host ccs0110 reporting.
  Task       14 on host ccs0110 reporting.
  Task       15 on host ccs0110 reporting.
  Task       16 on host ccs0110 reporting.
  Task       17 on host ccs0110 reporting.
  Task       18 on host ccs0110 reporting.
  Task       19 on host ccs0110 reporting.
  Task       20 on host ccs0110 reporting.
  Task       21 on host ccs0110 reporting.
  Task       22 on host ccs0110 reporting.
  Task       23 on host ccs0110 reporting.
  Task       24 on host ccs0110 reporting.
  Task       25 on host ccs0110 reporting.
  Task       26 on host ccs0110 reporting.
  Task       27 on host ccs0110 reporting.
  Task       28 on host ccs0110 reporting.
  Task       29 on host ccs0110 reporting.
  Task       30 on host ccs0110 reporting.
  Task       31 on host ccs0110 reporting.
  Task       32 on host ccs0110 reporting.
  Task       33 on host ccs0110 reporting.
  Task       34 on host ccs0110 reporting.
  Task       35 on host ccs0110 reporting.
  Task       36 on host ccs0110 reporting.
  Task       37 on host ccs0110 reporting.
  Task       38 on host ccs0110 reporting.
  Task       39 on host ccs0110 reporting.
  Task       40 on host ccs0118 reporting.
  Task       41 on host ccs0118 reporting.
  Task       42 on host ccs0118 reporting.
  Task       43 on host ccs0118 reporting.
  Task       44 on host ccs0118 reporting.
  Task       45 on host ccs0118 reporting.
  Task       46 on host ccs0118 reporting.
  Task       47 on host ccs0118 reporting.
  Task       48 on host ccs0118 reporting.
  Task       49 on host ccs0118 reporting.
  Task       50 on host ccs0118 reporting.
  Task       51 on host ccs0118 reporting.
  Task       52 on host ccs0118 reporting.
  Task       53 on host ccs0118 reporting.
  Task       54 on host ccs0118 reporting.
  Task       55 on host ccs0118 reporting.
  Task       56 on host ccs0118 reporting.
  Task       57 on host ccs0118 reporting.
  Task       58 on host ccs0118 reporting.
  Task       59 on host ccs0118 reporting.
  Task       60 on host ccs0118 reporting.
  Task       61 on host ccs0118 reporting.
  Task       62 on host ccs0118 reporting.
  Task       63 on host ccs0118 reporting.
  Task       64 on host ccs0118 reporting.
  Task       65 on host ccs0118 reporting.
  Task       66 on host ccs0118 reporting.
  Task       67 on host ccs0118 reporting.
  Task       68 on host ccs0118 reporting.
  Task       69 on host ccs0118 reporting.
  Task       70 on host ccs0118 reporting.
  Task       71 on host ccs0118 reporting.
  Task       72 on host ccs0118 reporting.
  Task       73 on host ccs0118 reporting.
  Task       74 on host ccs0118 reporting.
  Task       75 on host ccs0118 reporting.
  Task       76 on host ccs0118 reporting.
  Task       77 on host ccs0118 reporting.
  Task       78 on host ccs0118 reporting.
  Task       79 on host ccs0118 reporting.

  Performing system and environment tests:
  *** Environment variable OMP_NUM_THREADS is not set
  *** For performance reasons you might want to set it to 1
  | Checking for ScaLAPACK...
  | Testing pdtran()...
  | All pdtran() tests passed.

  Obtaining array dimensions for all initial allocations:
  
  -----------------------------------------------------------------------
  Parsing control.in (first pass over file, find array dimensions only).
  The contents of control.in will be repeated verbatim below
  unless switched off by setting 'verbatim_writeout .false.' .
  in the first line of control.in .
  -----------------------------------------------------------------------
  
  #===============================================================================
  # FHI-aims file: ./control.in
  # Created using the Atomic Simulation Environment (ASE)
  # Thu May  9 05:53:18 2024
  #===============================================================================
  spin                               none
  relativistic                       atomic_zora scalar
  compute_forces                     .true.
  override_warning_libxc             true
  xc                                 libxc MGGA_X_MBEEF+GGA_C_PBE_SOL
  k_grid                             5 4 5
  occupation_type                    gaussian 0.1
  plus_u_petukhov_mixing             1
  sc_accuracy_etot                   1e-06
  sc_accuracy_eev                    0.001
  sc_accuracy_rho                    1e-06
  sc_accuracy_forces                 0.0001
  #===============================================================================
  
  ################################################################################
  #
  #  FHI-aims code project
  #  VB, Fritz-Haber Institut, 2009
  #
  #  Suggested "light" defaults for Zr atom (to be pasted into control.in file)
  #  Be sure to double-check any results obtained with these settings for post-processing,
  #  e.g., with the "tight" defaults and larger basis sets.
  #
  ################################################################################
    species          Zr
  #     global species definitions
      nucleus        40
      mass           91.224
  #
      l_hartree      4
  #
      cut_pot        3.5  1.5  1.0
      basis_dep_cutoff    1e-4
  #
      radial_base    58  5.0
      radial_multiplier  1
      angular_grids specified
        division   0.5825   50
        division   1.1060  110
        division   1.4586  194
        division   1.7061  302
  #      division   1.9320  434
  #      division   2.2803  590
  #      division   2.4151  770
  #      division   2.4626  974
  #      division   3.1649 1202
  #      outer_grid  974
        outer_grid  302
  ################################################################################
  #
  #  Definition of "minimal" basis
  #
  ################################################################################
  #     valence basis states
      valence      5  s   2.
      valence      4  p   6.
      valence      4  d   2.
  #     ion occupancy
      ion_occ      5  s   1.
      ion_occ      4  p   6.
      ion_occ      4  d   1.
  ################################################################################
  #
  #  Suggested additional basis functions. For production calculations,
  #  uncomment them one after another (the most important basis functions are
  #  listed first).
  #
  #  Constructed for dimers: 1.9, 2.25, 3.00, 4.00 Ang
  #
  ################################################################################
  #  "First tier" - improvements: -605.96 meV to -18.06 meV
       hydro 4 f 7.2
       ionic 4 d auto
       ionic 5 p auto
  #     hydro 5 g 10.4
       ionic 5 s auto
  #  "Second tier" - improvements: -32.47 meV to -1.41 meV
  #     hydro 4 f 10.4
  #     hydro 6 h 14.8
  #     hydro 4 d 6.2
  #     hydro 4 p 4.4
  #     hydro 4 f 20
  #     hydro 5 s 6
  #  "Third tier" - improvements: -1.99 meV and lower.
  #     hydro 4 f 5.8
  #     hydro 5 g 10.8
  #     hydro 2 p 1
  #     hydro 3 d 8
  #     hydro 6 h 14.4
  #     hydro 1 s 0.9
  #  Further functions (approx -0.40 meV and below possible)
  plus_u 4 d 0
  ################################################################################
  #
  #  FHI-aims code project
  #  VB, Fritz-Haber Institut, 2009
  #
  #  Suggested "light" defaults for O atom (to be pasted into control.in file)
  #  Be sure to double-check any results obtained with these settings for post-processing,
  #  e.g., with the "tight" defaults and larger basis sets.
  #
  ################################################################################
    species        O
  #     global species definitions
      nucleus             8
      mass                15.9994
  #
      l_hartree           4
  #
      cut_pot             3.5  1.5  1.0
      basis_dep_cutoff    1e-4
  #
      radial_base         36 5.0
      radial_multiplier   1
       angular_grids specified
        division   0.2659   50
        division   0.4451  110
        division   0.6052  194
        division   0.7543  302
  #      division   0.8014  434
  #      division   0.8507  590
  #      division   0.8762  770
  #      division   0.9023  974
  #      division   1.2339 1202
  #      outer_grid 974
        outer_grid 302
  ################################################################################
  #
  #  Definition of "minimal" basis
  #
  ################################################################################
  #     valence basis states
      valence      2  s   2.
      valence      2  p   4.
  #     ion occupancy
      ion_occ      2  s   1.
      ion_occ      2  p   3.
  ################################################################################
  #
  #  Suggested additional basis functions. For production calculations,
  #  uncomment them one after another (the most important basis functions are
  #  listed first).
  #
  #  Constructed for dimers: 1.0 A, 1.208 A, 1.5 A, 2.0 A, 3.0 A
  #
  ################################################################################
  #  "First tier" - improvements: -699.05 meV to -159.38 meV
       hydro 2 p 1.8
       hydro 3 d 7.6
       hydro 3 s 6.4
  #  "Second tier" - improvements: -49.91 meV to -5.39 meV
  #     hydro 4 f 11.6
  #     hydro 3 p 6.2
  #     hydro 3 d 5.6
  #     hydro 5 g 17.6
  #     hydro 1 s 0.75
  #  "Third tier" - improvements: -2.83 meV to -0.50 meV
  #     ionic 2 p auto
  #     hydro 4 f 10.8
  #     hydro 4 d 4.7
  #     hydro 2 s 6.8
  #  "Fourth tier" - improvements: -0.40 meV to -0.12 meV
  #     hydro 3 p 5
  #     hydro 3 s 3.3
  #     hydro 5 g 15.6
  #     hydro 4 f 17.6
  #     hydro 4 d 14
  # Further basis functions - -0.08 meV and below
  #     hydro 3 s 2.1
  #     hydro 4 d 11.6
  #     hydro 3 p 16
  #     hydro 2 s 17.2
  plus_u 2 p 0
  
  -----------------------------------------------------------------------
  Completed first pass over input file control.in .
  -----------------------------------------------------------------------
  
  
  -----------------------------------------------------------------------
  Parsing geometry.in (first pass over file, find array dimensions only).
  The contents of geometry.in will be repeated verbatim below
  unless switched off by setting 'verbatim_writeout .false.' .
  in the first line of geometry.in .
  -----------------------------------------------------------------------
  
  #=======================================================
  # FHI-aims file: ./geometry.in
  # Created using the Atomic Simulation Environment (ASE)
  # Thu May  9 05:53:18 2024
  #=======================================================
  lattice_vector 5.0049999999999999 0.0000000000000000 0.0000000000000000
  lattice_vector 0.0000000000000000 5.2350000000000003 0.0000000000000000
  lattice_vector 0.0000000000000000 0.0000000000000000 5.0510000000000002
  atom_frac 0.2813262110584472 0.4767207321108689 0.7499999041425631 Zr
  atom_frac 0.7186737695992963 0.5232792710178840 0.2500001030895497 Zr
  atom_frac 0.2813262319312099 0.0232792674426624 0.2499998919791530 Zr
  atom_frac 0.7186737911610019 0.9767207331208264 0.7500001081224089 Zr
  atom_frac 0.1249737938810590 0.0913132873191430 0.6192887084311025 O
  atom_frac 0.8750265287620090 0.9086868797183709 0.1192889441352406 O
  atom_frac 0.1249732964453102 0.4086873603466306 0.3807110326683556 O
  atom_frac 0.8750259724317658 0.5913138592677455 0.8807113093507362 O
  atom_frac 0.8750261714575986 0.9086866575525536 0.3807112824100565 O
  atom_frac 0.1249735071359432 0.0913131756156801 0.8807110494511118 O
  atom_frac 0.8750267263297888 0.5913126041313512 0.6192889648273263 O
  atom_frac 0.1249740002980400 0.4086861769374137 0.1192886913855912 O
  atom_frac 0.4445202801013532 0.7500000407629495 0.0000000653052847 O
  atom_frac 0.5554795468762922 0.2500000383804092 0.4999999390067530 O
  atom_frac 0.5554797205272922 0.2499999599822429 -0.0000000626957464 O
  atom_frac 0.4445204520035922 0.7499999562932683 0.5000000683905143 O
  
  -----------------------------------------------------------------------
  Completed first pass over input file geometry.in .
  -----------------------------------------------------------------------
  

  Basic array size parameters:
  | Number of species                 :        2
  | Number of atoms                   :       16
  | Number of lattice vectors         :        3
  | Max. basis fn. angular momentum   :        3
  | Max. atomic/ionic basis occupied n:        5
  | Max. number of basis fn. types    :        3
  | Max. radial fns per species/type  :       10
  | Max. logarithmic grid size        :     1432
  | Max. radial integration grid size :       58
  | Max. angular integration grid size:      302
  | Max. angular grid division number :        8
  | Radial grid for Hartree potential :     1432
  | Number of spin channels           :        1
  | Max. number of (n,l) shells per species with '+U' treatment:        1

------------------------------------------------------------
          Reading file control.in.
------------------------------------------------------------
  Spin treatment: No spin polarisation.
  Scalar relativistic treatment of kinetic energy: on-site free-atom approximation to ZORA.
  Forces will be computed.
  XC: Using LibXC. Please refer to LibXC output for further details.
  Using libxc - Initializing
  Libxc version: 4.3.4


  ** PLEASE ** be careful using LibXC. Whilst most of the LDA, GGA and MGGA functionals,
  and hybrid variations therein, should be stable (though we always recommend testing!),
  there are several fancy functionals with e.g. range-separation, like HSE03/HSE06/LC-PBEh,
  and also MGGA functionals that depend on the laplacian of the density, like BR89,
  that are not fully implemented due to the infrastrucutre for these functionals being incomplete or non-generic.
  If you want to use these functionals please contact the development team and we will work on them with you!

  You have selected libxc functional MGGA_X_MBEEF (249)
    - Description: mBEEF exchange
    - Type: MGGA(Exchange)
    - Reference to Literature:
      [1] J. Wellendorff, K. T. Lundgaard, K. W. Jacobsen, and T. Bligaard, J. Chem. Phys. 140, 144107 (2014)

  You have selected libxc functional GGA_C_PBE_SOL (133)
    - Description: Perdew, Burke & Ernzerhof SOL
    - Type: GGA(Correlation)
    - Reference to Literature:
      [1] J. P. Perdew, A. Ruzsinszky, G. I. Csonka, O. A. Vydrov, G. E. Scuseria, L. A. Constantin, X. Zhou, and K. Burke, Phys.

  Switching on meta-ggas
  Found k-point grid:         5         4         5
  Occupation type: Gaussian broadening, width =   0.100000E+00 eV.
  Fixing petukhov mixing factor to   1.000000000000
  Convergence accuracy of total energy:  0.1000E-05
  Convergence accuracy of sum of eigenvalues:  0.1000E-02
  Convergence accuracy of self-consistent charge density:  0.1000E-05
  Convergence accuracy of forces:  0.1000E-03
 
  Reading configuration options for species Zr                  .
  | Found nuclear charge :  40.0000
  | Found atomic mass :    91.2240000000000      amu
  | Found l_max for Hartree potential  :   4
  | Found cutoff potl. onset [A], width [A], scale factor :    3.50000    1.50000    1.00000
  | Threshold for basis-dependent cutoff potential is   0.100000E-03
  | Found data for basic radial integration grid :    58 points, outermost radius =    5.000 A
  | Found multiplier for basic radial grid :   1
  | Found angular grid specification: user-specified.
  | Specified grid contains     5 separate shells.
  | Check grid settings after all constraints further below.
  | Found free-atom valence shell :  5 s   2.000
  | Found free-atom valence shell :  4 p   6.000
  | Found free-atom valence shell :  4 d   2.000
  | Found free-ion valence shell :  5 s   1.000
  | Found free-ion valence shell :  4 p   6.000
  | Found free-ion valence shell :  4 d   1.000
  | Found hydrogenic basis function :  4 f   7.200
  | Found ionic basis function :  4 d , default cutoff radius.
  | Found ionic basis function :  5 p , default cutoff radius.
  | Found ionic basis function :  5 s , default cutoff radius.
  | Found request for '+U' treatment for  4 d shell, U =     0.000000 eV.
  Species Zr                  : Missing cutoff potential type.
  Defaulting to exp(1/x)/(1-x)^2 type cutoff potential.
  Species Zr: No 'logarithmic' tag. Using default grid for free atom:
  | Default logarithmic grid data [bohr] : 0.1000E-03 0.1000E+03 0.1012E+01
  | Will include ionic basis functions of  2.0-fold positive Zr                   ion.
  Species Zr: On-site basis accuracy parameter (for Gram-Schmidt orthonormalisation) not specified.
  Using default value basis_acc =  0.1000000E-03.
  Species Zr                  : Using default innermost maximum threshold i_radial=  2 for radial functions.
  Species Zr                  : Default cutoff onset for free atom density etc. : 0.35000000E+01 AA.
  Species Zr                  : Basic radial grid will be enhanced according to radial_multiplier =   1, to contain    58 grid points.
 
  Reading configuration options for species O                   .
  | Found nuclear charge :   8.0000
  | Found atomic mass :    15.9994000000000      amu
  | Found l_max for Hartree potential  :   4
  | Found cutoff potl. onset [A], width [A], scale factor :    3.50000    1.50000    1.00000
  | Threshold for basis-dependent cutoff potential is   0.100000E-03
  | Found data for basic radial integration grid :    36 points, outermost radius =    5.000 A
  | Found multiplier for basic radial grid :   1
  | Found angular grid specification: user-specified.
  | Specified grid contains     5 separate shells.
  | Check grid settings after all constraints further below.
  | Found free-atom valence shell :  2 s   2.000
  | Found free-atom valence shell :  2 p   4.000
  | Found free-ion valence shell :  2 s   1.000
  | Found free-ion valence shell :  2 p   3.000
  | Found hydrogenic basis function :  2 p   1.800
  | Found hydrogenic basis function :  3 d   7.600
  | Found hydrogenic basis function :  3 s   6.400
  | Found request for '+U' treatment for  2 p shell, U =     0.000000 eV.
  Species O                   : Missing cutoff potential type.
  Defaulting to exp(1/x)/(1-x)^2 type cutoff potential.
  Species O : No 'logarithmic' tag. Using default grid for free atom:
  | Default logarithmic grid data [bohr] : 0.1000E-03 0.1000E+03 0.1012E+01
  Species O : On-site basis accuracy parameter (for Gram-Schmidt orthonormalisation) not specified.
  Using default value basis_acc =  0.1000000E-03.
  Species O                   : Using default innermost maximum threshold i_radial=  2 for radial functions.
  Species O                   : Default cutoff onset for free atom density etc. : 0.35000000E+01 AA.
  Species O                   : Basic radial grid will be enhanced according to radial_multiplier =   1, to contain    36 grid points.
 
  Finished reading input file 'control.in'.
 
------------------------------------------------------------


------------------------------------------------------------
          Reading geometry description geometry.in.
------------------------------------------------------------
  | The smallest distance between any two atoms is         1.32044423 AA.
  | The first atom of this pair is atom number                      6 .
  | The second atom of this pair is atom number                     9 .
  | Wigner-Seitz cell of the first atom image           0     0     0 .
  | (The Wigner-Seitz cell of the second atom is 0 0 0  by definition.)

  Symmetry information by spglib:
  | Precision set to  0.1E-04
  | Number of Operations  : 4
  | Space group           : 14
  | International         : P2_1/c
  | Schoenflies           : C2h^5
  Input structure read successfully.
  The structure contains       16 atoms,  and a total of        256.000 electrons.

  Input geometry:
  | Unit cell:
  |        5.00500000        0.00000000        0.00000000
  |        0.00000000        5.23500000        0.00000000
  |        0.00000000        0.00000000        5.05100000
  | Atomic structure:
  |       Atom                x [A]            y [A]            z [A]
  |    1: Species Zr            1.40803769        2.49563303        3.78824952
  |    2: Species Zr            3.59696222        2.73936698        1.26275052
  |    3: Species Zr            1.40803779        0.12186697        1.26274945
  |    4: Species Zr            3.59696232        5.11313304        3.78825055
  |    5: Species O             0.62549384        0.47802506        3.12802727
  |    6: Species O             4.37950778        4.75697582        0.60252846
  |    7: Species O             0.62549135        2.13947833        1.92297143
  |    8: Species O             4.37950499        3.09552805        4.44847282
  |    9: Species O             4.37950599        4.75697465        1.92297269
  |   10: Species O             0.62549240        0.47802447        4.44847151
  |   11: Species O             4.37950877        3.09552148        3.12802856
  |   12: Species O             0.62549487        2.13947214        0.60252718
  |   13: Species O             2.22482400        3.92625021        0.00000033
  |   14: Species O             2.78017513        1.30875020        2.52549969
  |   15: Species O             2.78017600        1.30874979       -0.00000032
  |   16: Species O             2.22482486        3.92624977        2.52550035

  Lattice parameters for 3D lattice (in Angstroms) :     5.005000    5.235000    5.051000
  Angle(s) between unit vectors (in degrees)       :    90.000000   90.000000   90.000000


  Quantities derived from the lattice vectors:
  | Reciprocal lattice vector 1:  1.255382  0.000000  0.000000
  | Reciprocal lattice vector 2:  0.000000  1.200226  0.000000
  | Reciprocal lattice vector 3:  0.000000  0.000000  1.243949
  | Unit cell volume                               :   0.132342E+03  A^3

  Fractional coordinates:
                         L1                L2                L3
       atom_frac         0.28132621        0.47672073        0.74999990  Zr
       atom_frac         0.71867377        0.52327927        0.25000010  Zr
       atom_frac         0.28132623        0.02327927        0.24999989  Zr
       atom_frac         0.71867379        0.97672073        0.75000011  Zr
       atom_frac         0.12497379        0.09131329        0.61928871  O
       atom_frac         0.87502653        0.90868688        0.11928894  O
       atom_frac         0.12497330        0.40868736        0.38071103  O
       atom_frac         0.87502597        0.59131386        0.88071131  O
       atom_frac         0.87502617        0.90868666        0.38071128  O
       atom_frac         0.12497351        0.09131318        0.88071105  O
       atom_frac         0.87502673        0.59131260        0.61928896  O
       atom_frac         0.12497400        0.40868618        0.11928869  O
       atom_frac         0.44452028        0.75000004        0.00000007  O
       atom_frac         0.55547955        0.25000004        0.49999994  O
       atom_frac         0.55547972        0.24999996       -0.00000006  O
       atom_frac         0.44452045        0.74999996        0.50000007  O

 
  Finished reading input file 'control.in'.
 

------------------------------------------------------------
          Reading geometry description geometry.in.
------------------------------------------------------------
 
  Consistency checks for stacksize environment parameter are next.
 
  | Maximum stacksize for task 0: unlimited
  | Maximum stacksize for task 1: unlimited
  | Maximum stacksize for task 2: unlimited
  | Maximum stacksize for task 3: unlimited
  | Maximum stacksize for task 4: unlimited
  | Maximum stacksize for task 5: unlimited
  | Maximum stacksize for task 6: unlimited
  | Maximum stacksize for task 7: unlimited
  | Maximum stacksize for task 8: unlimited
  | Maximum stacksize for task 9: unlimited
  | Maximum stacksize for task 10: unlimited
  | Maximum stacksize for task 11: unlimited
  | Maximum stacksize for task 12: unlimited
  | Maximum stacksize for task 13: unlimited
  | Maximum stacksize for task 14: unlimited
  | Maximum stacksize for task 15: unlimited
  | Maximum stacksize for task 16: unlimited
  | Maximum stacksize for task 17: unlimited
  | Maximum stacksize for task 18: unlimited
  | Maximum stacksize for task 19: unlimited
  | Maximum stacksize for task 20: unlimited
  | Maximum stacksize for task 21: unlimited
  | Maximum stacksize for task 22: unlimited
  | Maximum stacksize for task 23: unlimited
  | Maximum stacksize for task 24: unlimited
  | Maximum stacksize for task 25: unlimited
  | Maximum stacksize for task 26: unlimited
  | Maximum stacksize for task 27: unlimited
  | Maximum stacksize for task 28: unlimited
  | Maximum stacksize for task 29: unlimited
  | Maximum stacksize for task 30: unlimited
  | Maximum stacksize for task 31: unlimited
  | Maximum stacksize for task 32: unlimited
  | Maximum stacksize for task 33: unlimited
  | Maximum stacksize for task 34: unlimited
  | Maximum stacksize for task 35: unlimited
  | Maximum stacksize for task 36: unlimited
  | Maximum stacksize for task 37: unlimited
  | Maximum stacksize for task 38: unlimited
  | Maximum stacksize for task 39: unlimited
  | Maximum stacksize for task 40: unlimited
  | Maximum stacksize for task 41: unlimited
  | Maximum stacksize for task 42: unlimited
  | Maximum stacksize for task 43: unlimited
  | Maximum stacksize for task 44: unlimited
  | Maximum stacksize for task 45: unlimited
  | Maximum stacksize for task 46: unlimited
  | Maximum stacksize for task 47: unlimited
  | Maximum stacksize for task 48: unlimited
  | Maximum stacksize for task 49: unlimited
  | Maximum stacksize for task 50: unlimited
  | Maximum stacksize for task 51: unlimited
  | Maximum stacksize for task 52: unlimited
  | Maximum stacksize for task 53: unlimited
  | Maximum stacksize for task 54: unlimited
  | Maximum stacksize for task 55: unlimited
  | Maximum stacksize for task 56: unlimited
  | Maximum stacksize for task 57: unlimited
  | Maximum stacksize for task 58: unlimited
  | Maximum stacksize for task 59: unlimited
  | Maximum stacksize for task 60: unlimited
  | Maximum stacksize for task 61: unlimited
  | Maximum stacksize for task 62: unlimited
  | Maximum stacksize for task 63: unlimited
  | Maximum stacksize for task 64: unlimited
  | Maximum stacksize for task 65: unlimited
  | Maximum stacksize for task 66: unlimited
  | Maximum stacksize for task 67: unlimited
  | Maximum stacksize for task 68: unlimited
  | Maximum stacksize for task 69: unlimited
  | Maximum stacksize for task 70: unlimited
  | Maximum stacksize for task 71: unlimited
  | Maximum stacksize for task 72: unlimited
  | Maximum stacksize for task 73: unlimited
  | Maximum stacksize for task 74: unlimited
  | Maximum stacksize for task 75: unlimited
  | Maximum stacksize for task 76: unlimited
  | Maximum stacksize for task 77: unlimited
  | Maximum stacksize for task 78: unlimited
  | Maximum stacksize for task 79: unlimited
  | Current stacksize for task 0: unlimited
  | Current stacksize for task 1: unlimited
  | Current stacksize for task 2: unlimited
  | Current stacksize for task 3: unlimited
  | Current stacksize for task 4: unlimited
  | Current stacksize for task 5: unlimited
  | Current stacksize for task 6: unlimited
  | Current stacksize for task 7: unlimited
  | Current stacksize for task 8: unlimited
  | Current stacksize for task 9: unlimited
  | Current stacksize for task 10: unlimited
  | Current stacksize for task 11: unlimited
  | Current stacksize for task 12: unlimited
  | Current stacksize for task 13: unlimited
  | Current stacksize for task 14: unlimited
  | Current stacksize for task 15: unlimited
  | Current stacksize for task 16: unlimited
  | Current stacksize for task 17: unlimited
  | Current stacksize for task 18: unlimited
  | Current stacksize for task 19: unlimited
  | Current stacksize for task 20: unlimited
  | Current stacksize for task 21: unlimited
  | Current stacksize for task 22: unlimited
  | Current stacksize for task 23: unlimited
  | Current stacksize for task 24: unlimited
  | Current stacksize for task 25: unlimited
  | Current stacksize for task 26: unlimited
  | Current stacksize for task 27: unlimited
  | Current stacksize for task 28: unlimited
  | Current stacksize for task 29: unlimited
  | Current stacksize for task 30: unlimited
  | Current stacksize for task 31: unlimited
  | Current stacksize for task 32: unlimited
  | Current stacksize for task 33: unlimited
  | Current stacksize for task 34: unlimited
  | Current stacksize for task 35: unlimited
  | Current stacksize for task 36: unlimited
  | Current stacksize for task 37: unlimited
  | Current stacksize for task 38: unlimited
  | Current stacksize for task 39: unlimited
  | Current stacksize for task 40: unlimited
  | Current stacksize for task 41: unlimited
  | Current stacksize for task 42: unlimited
  | Current stacksize for task 43: unlimited
  | Current stacksize for task 44: unlimited
  | Current stacksize for task 45: unlimited
  | Current stacksize for task 46: unlimited
  | Current stacksize for task 47: unlimited
  | Current stacksize for task 48: unlimited
  | Current stacksize for task 49: unlimited
  | Current stacksize for task 50: unlimited
  | Current stacksize for task 51: unlimited
  | Current stacksize for task 52: unlimited
  | Current stacksize for task 53: unlimited
  | Current stacksize for task 54: unlimited
  | Current stacksize for task 55: unlimited
  | Current stacksize for task 56: unlimited
  | Current stacksize for task 57: unlimited
  | Current stacksize for task 58: unlimited
  | Current stacksize for task 59: unlimited
  | Current stacksize for task 60: unlimited
  | Current stacksize for task 61: unlimited
  | Current stacksize for task 62: unlimited
  | Current stacksize for task 63: unlimited
  | Current stacksize for task 64: unlimited
  | Current stacksize for task 65: unlimited
  | Current stacksize for task 66: unlimited
  | Current stacksize for task 67: unlimited
  | Current stacksize for task 68: unlimited
  | Current stacksize for task 69: unlimited
  | Current stacksize for task 70: unlimited
  | Current stacksize for task 71: unlimited
  | Current stacksize for task 72: unlimited
  | Current stacksize for task 73: unlimited
  | Current stacksize for task 74: unlimited
  | Current stacksize for task 75: unlimited
  | Current stacksize for task 76: unlimited
  | Current stacksize for task 77: unlimited
  | Current stacksize for task 78: unlimited
  | Current stacksize for task 79: unlimited
 
  Consistency checks for the contents of control.in are next.
 
  MPI_IN_PLACE appears to work with this MPI implementation.
  | Keeping use_mpi_in_place .true. (see manual).
  Target number of points in a grid batch is not set. Defaulting to  100
  Method for grid partitioning is not set. Defaulting to parallel hash+maxmin partitioning.
  Batch size limit is not set. Defaulting to    200
  By default, will store active basis functions for each batch.
  If in need of memory, prune_basis_once .false. can be used to disable this option.
  communication_type for Hartree potential was not specified.
  Defaulting to calc_hartree .
  Defaulting to Pulay charge density mixer.
  Pulay mixer: Number of relevant iterations not set.
  Defaulting to    8 iterations.
  Pulay mixer: Number of initial linear mixing iterations not set.
  Defaulting to    0 iterations.
  Work space size for distributed Hartree potential not set.
  Defaulting to   0.200000E+03 MB.
  Mixing parameter for charge density mixing has not been set.
  Using default: charge_mix_param =     0.0500.
  The mixing parameter will be adjusted in iteration number     2 of the first full s.c.f. cycle only.
  Algorithm-dependent basis array size parameters:
  | n_max_pulay                         :        8
  Maximum number of self-consistency iterations not provided.
  Presetting  1000 iterations.
  Presetting      1001 iterations before the initial mixing cycle
  is restarted anyway using the sc_init_iter criterion / keyword.
  Presetting a factor      1.000 between actual scf density residual
  and density convergence criterion sc_accuracy_rho below which sc_init_iter
  takes no effect.
  Geometry relaxation not requested: no relaxation will be performed.
  Handling of forces: Unphysical translation and rotation will be removed from forces.
  No accuracy limit for integral partition fn. given. Defaulting to  0.1000E-14.
  No threshold value for u(r) in integrations given. Defaulting to  0.1000E-05.
  No accuracy for occupation numbers given. Defaulting to  0.1000E-12.
  No threshold value for occupation numbers given. Defaulting to  0.0000E+00.
  No accuracy for fermi level given. Defaulting to  0.1000E-19.
  Maximum # of iterations to find E_F not set. Defaulting to  200.
  Preferred method for the eigenvalue solver ('KS_method') not specified in 'control.in'.
  Defaulting to serial version, LAPACK (via ELSI), since more k-points than CPUs available.
  Will not use alltoall communication since running on < 1024 CPUs.
  Threshold for basis singularities not set.
  Default threshold for basis singularities:  0.1000E-04
  partition_type (choice of integration weights) for integrals was not specified.
  | Using a version of the partition function of Stratmann and coworkers ('stratmann_sparse').
  | At each grid point, the set of atoms used to build the partition table is smoothly restricted to
  | only those atoms whose free-atom density would be non-zero at that grid point.
  Partitioning for Hartree potential was not defined. Using partition_type for integrals.
  | Adjusted default value of keyword multip_moments_threshold to:       0.10000000E-11
  | This value may affect high angular momentum components of the Hartree potential in periodic systems.
  Angular momentum expansion for Kerker preconditioner not set explicitly.
  | Using default value of   0
  No explicit requirement for turning off preconditioner.
  | By default, it will be turned off when the charge convergence reaches
  | sc_accuracy_rho  =   0.100000E-05
  | sc_accuracy_eev  =   0.100000E-02
  | sc_accuracy_etot =   0.100000E-05
  No special mixing parameter while Kerker preconditioner is on.
  Using default: charge_mix_param =     0.0500.
  No q(lm)/r^(l+1) cutoff set for long-range Hartree potential.
  | Using default value of  0.100000E-09 .
  | Verify using the multipole_threshold keyword.
  Defaulting to new monopole extrapolation.
  Density update method: automatic selection selected.
  Using density matrix based charge density update.
 * Warning: DFT+U requires using density matrix based charge density update.
  Using density matrix based charge density update.
  Using packed matrix style: index .
  Defaulting to use time-reversal symmetry for k-point grid.
  Charge integration errors on the 3D integration grid will be compensated
  by explicit normalization and distribution of residual charges.
  Use the "compensate_multipole_errors" flag to change this behaviour.
  Set 'collect_eigenvectors' to be '.true.' for all serial calculations. This is mandatory.
  Set 'collect_eigenvectors' to be '.true.' for KS_method lapack_fast and serial.
 
  Consistency checks for the contents of geometry.in are next.
 

  Range separation radius for Ewald summation (hartree_convergence_parameter):      2.74853427 bohr.
  Number of empty states per atom not set in control.in - providing a guess from actual geometry.
  | Total number of empty states used during s.c.f. cycle:       58
  If you use a very high smearing, use empty_states (per atom!) in control.in to increase this value.

  Structure-dependent array size parameters: 
  | Maximum number of distinct radial functions  :       20
  | Maximum number of basis functions            :      328
  | Number of Kohn-Sham states (occupied + empty):      186
------------------------------------------------------------

------------------------------------------------------------
          Preparing all fixed parts of the calculation.
------------------------------------------------------------
  Determining machine precision:
    2.225073858507201E-308
  Setting up grids for atomic and cluster calculations.

  Creating wave function, potential, and density for free atoms.

  Species: Zr

  List of occupied orbitals and eigenvalues:
    n    l              occ      energy [Ha]    energy [eV]
    1    0           2.0000      -667.705443    -18169.1895
    2    0           2.0000       -90.947874     -2474.8176
    3    0           2.0000       -14.816438      -403.1758
    4    0           2.0000        -1.980587       -53.8945
    5    0           2.0000        -0.149501        -4.0681
    2    1           6.0000       -81.145891     -2208.0920
    3    1           6.0000       -11.637551      -316.6739
    4    1           6.0000        -1.172029       -31.8925
    3    2          10.0000        -6.408139      -174.3743
    4    2           2.0000        -0.117825        -3.2062


  Species: O

  List of occupied orbitals and eigenvalues:
    n    l              occ      energy [Ha]    energy [eV]
    1    0           2.0000       -18.786109      -511.1960
    2    0           2.0000        -0.872635       -23.7456
    2    1           4.0000        -0.337687        -9.1889


  Adding cutoff potential to free-atom effective potential.
  Creating fixed part of basis set: Ionic, confined, hydrogenic.
 
  Zr                   ion:

  List of free ionic orbitals and eigenvalues:
    n    l      energy [Ha]    energy [eV]
    1    0      -668.422481    -18188.7011
    2    0       -91.659116     -2494.1714
    3    0       -15.521812      -422.3700
    4    0        -2.666442       -72.5576
    5    0        -0.652717       -17.7613
    2    1       -81.856520     -2227.4293
    3    1       -12.342798      -335.8646
    4    1        -1.848413       -50.2979
    3    2        -7.113819      -193.5769
    4    2        -0.734961       -19.9993


  List of ionic basis orbitals and eigenvalues:
    n    l      energy [Ha]    energy [eV]    outer radius [A]
    4    2        -0.734922       -19.9983       4.486525
    5    1        -0.474660       -12.9161       4.597573
    5    0        -0.651984       -17.7414       4.597573

 
  Zr                   hydrogenic:
 
  List of hydrogenic basis orbitals: 
    n    l      effective z      eigenvalue [eV]  inner max. [A]     outer max. [A]     outer radius [A]   
    4    3         7.200000       -44.0814           1.169212           1.169212           4.541709
 
 
  O                    hydrogenic:
 
  List of hydrogenic basis orbitals: 
    n    l      effective z      eigenvalue [eV]  inner max. [A]     outer max. [A]     outer radius [A]   
    2    1         1.800000       -10.9749           1.164242           1.164242           4.578029
    3    2         7.600000       -87.3180           0.624125           0.624125           3.251020
    3    0         6.400000       -61.9207           0.061167           1.081902           4.001998
 
  Creating atomic-like basis functions for current effective potential.

  Species Zr                  :

  List of atomic basis orbitals and eigenvalues:
    n    l      energy [Ha]    energy [eV]    outer radius [A]
    1    0      -667.705443    -18169.1895       0.259930
    2    0       -90.947874     -2474.8176       0.725827
    3    0       -14.816438      -403.1758       1.771771
    4    0        -1.980587       -53.8945       4.169218
    5    0        -0.149501        -4.0681       4.597573
    2    1       -81.145891     -2208.0920       0.743792
    3    1       -11.637551      -316.6739       1.953807
    4    1        -1.172029       -31.8925       4.378160
    3    2        -6.408139      -174.3743       2.434714
    4    2        -0.117825        -3.2062       4.597573


  Species O                   :

  List of atomic basis orbitals and eigenvalues:
    n    l      energy [Ha]    energy [eV]    outer radius [A]
    1    0       -18.786109      -511.1960       1.433179
    2    0        -0.872635       -23.7456       4.413171
    2    1        -0.337687        -9.1889       4.522403

  Assembling full basis from fixed parts.
 * Warning - Since '+U' treatment was requested,
 * the basis-dependent cutoff is turned off automatically.
  | Species Zr :   atomic orbital   1 s accepted.
  | Species Zr :   atomic orbital   2 s accepted.
  | Species Zr :   atomic orbital   3 s accepted.
  | Species Zr :   atomic orbital   4 s accepted.
  | Species Zr :   atomic orbital   5 s accepted.
  | Species Zr :    ionic orbital   5 s accepted.
  | Species Zr :   atomic orbital   2 p accepted.
  | Species Zr :   atomic orbital   3 p accepted.
  | Species Zr :   atomic orbital   4 p accepted.
  | Species Zr :    ionic orbital   5 p accepted.
  | Species Zr :   atomic orbital   3 d accepted.
  | Species Zr :   atomic orbital   4 d accepted.
  | Species Zr :    ionic orbital   4 d accepted.
  | Species Zr :    hydro orbital   4 f accepted.
 * Warning - Since '+U' treatment was requested,
 * the basis-dependent cutoff is turned off automatically.
  | Species O :   atomic orbital   1 s accepted.
  | Species O :   atomic orbital   2 s accepted.
  | Species O :    hydro orbital   3 s accepted.
  | Species O :   atomic orbital   2 p accepted.
  | Species O :    hydro orbital   2 p accepted.
  | Species O :    hydro orbital   3 d accepted.
 
  Basis size parameters after reduction:
  | Total number of radial functions:       20
  | Total number of basis functions :      328
 
  Per-task memory consumption for arrays in subroutine allocate_ext:
  |           7.341088MB.
  Testing on-site integration grid accuracy.
  |  Species  Function  <phi|h_atom|phi> (log., in eV)  <phi|h_atom|phi> (rad., in eV)
           1        1             -18169.1895457911             -18169.1614623736
           1        2              -2474.8175726103              -2474.8171789502
           1        3               -403.1757871568               -403.1757736893
           1        4                -53.8945212947                -53.8945202997
           1        5                 -4.0970677402                 -4.1270612347
           1        6                  7.0596199505                  6.8479589491 ***
           1        7              -2208.0920400563              -2208.0920378658
           1        8               -316.6738872308               -316.6738855534
           1        9                -31.8925290095                -31.8925288827
           1       10                  0.0613944818                  0.0388400402
           1       11               -174.3743475916               -174.3743471166
           1       12                 -3.2114928193                 -3.2170318423
           1       13                  6.4255368912                  6.3312071750 ***
           1       14                 16.9592439398                 16.9589063465
           2       15               -511.1960429777               -511.1959399133
           2       16                -23.7455964041                -23.7455972542
           2       17                 17.3746964700                 17.3748057881
           2       18                 -9.1890598667                 -9.1892026751
           2       19                  8.1915160719                  8.1720639763
           2       20                 45.8005976646                 45.8005620229
 * Note: Onsite integrals marked "***" above are less accurate than
 * onsite_accuracy_threshold =    0.03000 eV. Usually, this is harmless.
 * When in doubt, tighten the "radial" and/or "radial_multiplier" flags to check.

  Preparing densities etc. for the partition functions (integrals / Hartree potential).

  Preparations completed.
  max(cpu_time)          :      0.465 s.
  Wall clock time (cpu1) :      0.479 s.
------------------------------------------------------------

------------------------------------------------------------
          Begin self-consistency loop: Initialization.

          Date     :  20240509, Time     :  055320.857
------------------------------------------------------------

  Initializing index lists of integration centers etc. from given atomic structure:
  Mapping all atomic coordinates to central unit cell.

  Initializing the k-points
  Using symmetry for reducing the k-points
  | k-points reduced from:      100 to       51
  | Number of k-points                             :        51
  The eigenvectors in the calculations are COMPLEX.
  | K-points in task   0:         0
  | K-points in task   1:         1
  | K-points in task   2:         1
  | K-points in task   3:         1
  | K-points in task   4:         1
  | K-points in task   5:         1
  | K-points in task   6:         1
  | K-points in task   7:         1
  | K-points in task   8:         1
  | K-points in task   9:         1
  | K-points in task  10:         1
  | K-points in task  11:         1
  | K-points in task  12:         1
  | K-points in task  13:         1
  | K-points in task  14:         1
  | K-points in task  15:         1
  | K-points in task  16:         1
  | K-points in task  17:         1
  | K-points in task  18:         1
  | K-points in task  19:         1
  | K-points in task  20:         1
  | K-points in task  21:         1
  | K-points in task  22:         1
  | K-points in task  23:         1
  | K-points in task  24:         1
  | K-points in task  25:         1
  | K-points in task  26:         1
  | K-points in task  27:         1
  | K-points in task  28:         1
  | K-points in task  29:         1
  | K-points in task  30:         1
  | K-points in task  31:         1
  | K-points in task  32:         1
  | K-points in task  33:         1
  | K-points in task  34:         1
  | K-points in task  35:         1
  | K-points in task  36:         1
  | K-points in task  37:         1
  | K-points in task  38:         1
  | K-points in task  39:         1
  | K-points in task  40:         1
  | K-points in task  41:         1
  | K-points in task  42:         1
  | K-points in task  43:         1
  | K-points in task  44:         1
  | K-points in task  45:         1
  | K-points in task  46:         1
  | K-points in task  47:         1
  | K-points in task  48:         1
  | K-points in task  49:         1
  | K-points in task  50:         1
  | K-points in task  51:         1
  | K-points in task  52:         0
  | K-points in task  53:         0
  | K-points in task  54:         0
  | K-points in task  55:         0
  | K-points in task  56:         0
  | K-points in task  57:         0
  | K-points in task  58:         0
  | K-points in task  59:         0
  | K-points in task  60:         0
  | K-points in task  61:         0
  | K-points in task  62:         0
  | K-points in task  63:         0
  | K-points in task  64:         0
  | K-points in task  65:         0
  | K-points in task  66:         0
  | K-points in task  67:         0
  | K-points in task  68:         0
  | K-points in task  69:         0
  | K-points in task  70:         0
  | K-points in task  71:         0
  | K-points in task  72:         0
  | K-points in task  73:         0
  | K-points in task  74:         0
  | K-points in task  75:         0
  | K-points in task  76:         0
  | K-points in task  77:         0
  | K-points in task  78:         0
  | K-points in task  79:         0
  | Number of basis functions in the Hamiltonian integrals :      4696
  | Number of basis functions in a single unit cell        :       328
  | Number of centers in hartree potential         :      1622
  | Number of centers in hartree multipole         :      1196
  | Number of centers in electron density summation:       878
  | Number of centers in basis integrals           :       942
  | Number of centers in integrals                 :       328
  | Number of centers in hamiltonian               :       888
  | Consuming         74 KiB for k_phase.
  | Number of super-cells (origin) [n_cells]                     :         343
  | Number of super-cells (after PM_index) [n_cells]             :          94
  | Number of super-cells in hamiltonian [n_cells_in_hamiltonian]:          94
  | Size of matrix packed + index [n_hamiltonian_matrix_size] :      892749
  | Estimated reciprocal-space cutoff momentum G_max:         3.45264755 bohr^-1 .
  | Reciprocal lattice points for long-range Hartree potential:     626
  Partitioning the integration grid into batches with parallel hashing+maxmin method.
  | Number of batches:     1489
  | Maximal batch size:     112
  | Minimal batch size:      52
  | Average batch size:      70.845
  | Standard deviation of batch sizes:      11.220

  Integration load balanced across    80 MPI tasks.
  Work distribution over tasks is as follows:
  Task     0 has       1336 integration points.
  Task     1 has       1328 integration points.
  Task     2 has       1291 integration points.
  Task     3 has       1329 integration points.
  Task     4 has       1320 integration points.
  Task     5 has       1315 integration points.
  Task     6 has       1326 integration points.
  Task     7 has       1318 integration points.
  Task     8 has       1339 integration points.
  Task     9 has       1289 integration points.
  Task    10 has       1318 integration points.
  Task    11 has       1334 integration points.
  Task    12 has       1314 integration points.
  Task    13 has       1334 integration points.
  Task    14 has       1308 integration points.
  Task    15 has       1338 integration points.
  Task    16 has       1322 integration points.
  Task    17 has       1334 integration points.
  Task    18 has       1294 integration points.
  Task    19 has       1328 integration points.
  Task    20 has       1337 integration points.
  Task    21 has       1320 integration points.
  Task    22 has       1296 integration points.
  Task    23 has       1316 integration points.
  Task    24 has       1293 integration points.
  Task    25 has       1321 integration points.
  Task    26 has       1340 integration points.
  Task    27 has       1296 integration points.
  Task    28 has       1291 integration points.
  Task    29 has       1320 integration points.
  Task    30 has       1317 integration points.
  Task    31 has       1316 integration points.
  Task    32 has       1318 integration points.
  Task    33 has       1319 integration points.
  Task    34 has       1292 integration points.
  Task    35 has       1339 integration points.
  Task    36 has       1335 integration points.
  Task    37 has       1326 integration points.
  Task    38 has       1321 integration points.
  Task    39 has       1314 integration points.
  Task    40 has       1344 integration points.
  Task    41 has       1296 integration points.
  Task    42 has       1331 integration points.
  Task    43 has       1330 integration points.
  Task    44 has       1315 integration points.
  Task    45 has       1317 integration points.
  Task    46 has       1333 integration points.
  Task    47 has       1298 integration points.
  Task    48 has       1314 integration points.
  Task    49 has       1332 integration points.
  Task    50 has       1317 integration points.
  Task    51 has       1334 integration points.
  Task    52 has       1293 integration points.
  Task    53 has       1324 integration points.
  Task    54 has       1328 integration points.
  Task    55 has       1336 integration points.
  Task    56 has       1320 integration points.
  Task    57 has       1329 integration points.
  Task    58 has       1291 integration points.
  Task    59 has       1328 integration points.
  Task    60 has       1326 integration points.
  Task    61 has       1317 integration points.
  Task    62 has       1317 integration points.
  Task    63 has       1335 integration points.
  Task    64 has       1315 integration points.
  Task    65 has       1294 integration points.
  Task    66 has       1323 integration points.
  Task    67 has       1292 integration points.
  Task    68 has       1320 integration points.
  Task    69 has       1330 integration points.
  Task    70 has       1332 integration points.
  Task    71 has       1319 integration points.
  Task    72 has       1330 integration points.
  Task    73 has       1321 integration points.
  Task    74 has       1324 integration points.
  Task    75 has       1316 integration points.
  Task    76 has       1311 integration points.
  Task    77 has       1327 integration points.
  Task    78 has       1294 integration points.
  Task    79 has       1293 integration points.
  Initializing partition tables, free-atom densities, potentials, etc. across the integration grid (initialize_grid_storage).
  | initialize_grid_storage: Actual outermost partition radius vs. multipole_radius_free
  | (-- VB: in principle, multipole_radius_free should be larger, hence this output)
  | Species        1: Confinement radius =              4.999999999999999 AA, multipole_radius_free =              5.008334078144968 AA.
  | Species        1: outer_partition_radius set to              5.008334078144968 AA .
  | Species        2: Confinement radius =              4.999999999999999 AA, multipole_radius_free =              5.048384829883283 AA.
  | Species        2: outer_partition_radius set to              5.048384829883283 AA .
  | The sparse table of interatomic distances needs       3261.96 kbyte instead of      7098.91 kbyte of memory.
  | Net number of integration points:   105488
  | of which are non-zero points    :    83192
  | Numerical average free-atom electrostatic potential    :    -24.57603657 eV
  Renormalizing the initial density to the exact electron count on the 3D integration grid.
  | Initial density: Formal number of electrons (from input files) :     256.0000000000
  | Integrated number of electrons on 3D grid     :     256.0027251870
  | Charge integration error                      :       0.0027251870
  | Normalization factor for density and gradient :       0.9999893549
  Renormalizing the free-atom superposition density to the exact electron count on the 3D integration grid.
  | Formal number of electrons (from input files) :     256.0000000000
  | Integrated number of electrons on 3D grid     :     256.0027251870
  | Charge integration error                      :       0.0027251870
  | Normalization factor for density and gradient :       0.9999893549
  Obtaining max. number of non-zero basis functions in each batch (get_n_compute_maxes).
  | Maximal number of non-zero basis functions:      951 in task     0
  | Maximal number of non-zero basis functions:      952 in task     1
  | Maximal number of non-zero basis functions:      982 in task     2
  | Maximal number of non-zero basis functions:     1008 in task     3
  | Maximal number of non-zero basis functions:      973 in task     4
  | Maximal number of non-zero basis functions:     1008 in task     5
  | Maximal number of non-zero basis functions:      951 in task     6
  | Maximal number of non-zero basis functions:      968 in task     7
  | Maximal number of non-zero basis functions:      958 in task     8
  | Maximal number of non-zero basis functions:      944 in task     9
  | Maximal number of non-zero basis functions:      942 in task    10
  | Maximal number of non-zero basis functions:     1003 in task    11
  | Maximal number of non-zero basis functions:     1004 in task    12
  | Maximal number of non-zero basis functions:      978 in task    13
  | Maximal number of non-zero basis functions:      980 in task    14
  | Maximal number of non-zero basis functions:      971 in task    15
  | Maximal number of non-zero basis functions:      960 in task    16
  | Maximal number of non-zero basis functions:      985 in task    17
  | Maximal number of non-zero basis functions:      988 in task    18
  | Maximal number of non-zero basis functions:      950 in task    19
  | Maximal number of non-zero basis functions:      990 in task    20
  | Maximal number of non-zero basis functions:      966 in task    21
  | Maximal number of non-zero basis functions:      964 in task    22
  | Maximal number of non-zero basis functions:      956 in task    23
  | Maximal number of non-zero basis functions:      987 in task    24
  | Maximal number of non-zero basis functions:      978 in task    25
  | Maximal number of non-zero basis functions:      952 in task    26
  | Maximal number of non-zero basis functions:      988 in task    27
  | Maximal number of non-zero basis functions:      973 in task    28
  | Maximal number of non-zero basis functions:      961 in task    29
  | Maximal number of non-zero basis functions:      955 in task    30
  | Maximal number of non-zero basis functions:      964 in task    31
  | Maximal number of non-zero basis functions:      956 in task    32
  | Maximal number of non-zero basis functions:      999 in task    33
  | Maximal number of non-zero basis functions:      974 in task    34
  | Maximal number of non-zero basis functions:      955 in task    35
  | Maximal number of non-zero basis functions:      957 in task    36
  | Maximal number of non-zero basis functions:      935 in task    37
  | Maximal number of non-zero basis functions:      997 in task    38
  | Maximal number of non-zero basis functions:      958 in task    39
  | Maximal number of non-zero basis functions:      948 in task    40
  | Maximal number of non-zero basis functions:      974 in task    41
  | Maximal number of non-zero basis functions:      975 in task    42
  | Maximal number of non-zero basis functions:      949 in task    43
  | Maximal number of non-zero basis functions:      973 in task    44
  | Maximal number of non-zero basis functions:     1012 in task    45
  | Maximal number of non-zero basis functions:      976 in task    46
  | Maximal number of non-zero basis functions:      947 in task    47
  | Maximal number of non-zero basis functions:      942 in task    48
  | Maximal number of non-zero basis functions:      974 in task    49
  | Maximal number of non-zero basis functions:      964 in task    50
  | Maximal number of non-zero basis functions:      935 in task    51
  | Maximal number of non-zero basis functions:      982 in task    52
  | Maximal number of non-zero basis functions:      936 in task    53
  | Maximal number of non-zero basis functions:      980 in task    54
  | Maximal number of non-zero basis functions:      977 in task    55
  | Maximal number of non-zero basis functions:      973 in task    56
  | Maximal number of non-zero basis functions:      964 in task    57
  | Maximal number of non-zero basis functions:      921 in task    58
  | Maximal number of non-zero basis functions:      932 in task    59
  | Maximal number of non-zero basis functions:      959 in task    60
  | Maximal number of non-zero basis functions:      977 in task    61
  | Maximal number of non-zero basis functions:      959 in task    62
  | Maximal number of non-zero basis functions:      948 in task    63
  | Maximal number of non-zero basis functions:      942 in task    64
  | Maximal number of non-zero basis functions:      954 in task    65
  | Maximal number of non-zero basis functions:      957 in task    66
  | Maximal number of non-zero basis functions:      964 in task    67
  | Maximal number of non-zero basis functions:      963 in task    68
  | Maximal number of non-zero basis functions:      961 in task    69
  | Maximal number of non-zero basis functions:      960 in task    70
  | Maximal number of non-zero basis functions:      974 in task    71
  | Maximal number of non-zero basis functions:      962 in task    72
  | Maximal number of non-zero basis functions:      960 in task    73
  | Maximal number of non-zero basis functions:      969 in task    74
  | Maximal number of non-zero basis functions:     1000 in task    75
  | Maximal number of non-zero basis functions:      979 in task    76
  | Maximal number of non-zero basis functions:      976 in task    77
  | Maximal number of non-zero basis functions:      952 in task    78
  | Maximal number of non-zero basis functions:     1009 in task    79
  Allocating        0.000 MB for KS_eigenvector_complex
  Integrating Hamiltonian matrix: batch-based integration.
  Time summed over all CPUs for integration: real work       20.739 s, elapsed       22.854 s
  Integrating overlap matrix.
  Time summed over all CPUs for integration: real work       14.217 s, elapsed       15.714 s
  Decreasing sparse matrix size:
  | Tolerance:  0.1000E-12
  Hamiltonian matrix
  | Array has   780825 nonzero elements out of   892749 elements
  | Sparsity factor is 0.125
  Overlap matrix
  | Array has   721631 nonzero elements out of   892749 elements
  | Sparsity factor is 0.192
  New size of hamiltonian matrix:      780925

  Updating Kohn-Sham eigenvalues and eigenvectors using ELSI and the (modified) LAPACK eigensolver.

  Obtaining occupation numbers and chemical potential using ELSI.
  | Chemical potential (Fermi level):    -5.40457982 eV
  Writing Kohn-Sham eigenvalues.
  K-point:       1 at    0.000000    0.000000    0.000000 (in units of recip. lattice)

  State    Occupation    Eigenvalue [Ha]    Eigenvalue [eV]
      1       2.00000        -667.712205       -18169.37354
      2       2.00000        -667.712205       -18169.37354
      3       2.00000        -667.712205       -18169.37354
      4       2.00000        -667.712205       -18169.37354
      5       2.00000         -90.954854        -2475.00750
      6       2.00000         -90.954854        -2475.00750
      7       2.00000         -90.954854        -2475.00750
      8       2.00000         -90.954854        -2475.00750
      9       2.00000         -81.152845        -2208.28127
     10       2.00000         -81.152845        -2208.28127
     11       2.00000         -81.152845        -2208.28127
     12       2.00000         -81.152845        -2208.28127
     13       2.00000         -81.152829        -2208.28082
     14       2.00000         -81.152829        -2208.28082
     15       2.00000         -81.152829        -2208.28082
     16       2.00000         -81.152829        -2208.28082
     17       2.00000         -81.152813        -2208.28039
     18       2.00000         -81.152813        -2208.28039
     19       2.00000         -81.152813        -2208.28039
     20       2.00000         -81.152813        -2208.28039
     21       2.00000         -18.905967         -514.45755
     22       2.00000         -18.905967         -514.45755
     23       2.00000         -18.905967         -514.45755
     24       2.00000         -18.905967         -514.45755
     25       2.00000         -18.893396         -514.11547
     26       2.00000         -18.893396         -514.11547
     27       2.00000         -18.893396         -514.11547
     28       2.00000         -18.893396         -514.11547
     29       2.00000         -18.893376         -514.11491
     30       2.00000         -18.893376         -514.11491
     31       2.00000         -18.893376         -514.11491
     32       2.00000         -18.893376         -514.11491
     33       2.00000         -14.824828         -403.40408
     34       2.00000         -14.824828         -403.40408
     35       2.00000         -14.824828         -403.40408
     36       2.00000         -14.824828         -403.40408
     37       2.00000         -11.646202         -316.90927
     38       2.00000         -11.646202         -316.90927
     39       2.00000         -11.646202         -316.90927
     40       2.00000         -11.646202         -316.90927
     41       2.00000         -11.646012         -316.90410
     42       2.00000         -11.646012         -316.90410
     43       2.00000         -11.646012         -316.90410
     44       2.00000         -11.646012         -316.90410
     45       2.00000         -11.645825         -316.89901
     46       2.00000         -11.645825         -316.89901
     47       2.00000         -11.645825         -316.89901
     48       2.00000         -11.645825         -316.89901
     49       2.00000          -6.416803         -174.61009
     50       2.00000          -6.416803         -174.61009
     51       2.00000          -6.416803         -174.61009
     52       2.00000          -6.416803         -174.61009
     53       2.00000          -6.416784         -174.60958
     54       2.00000          -6.416784         -174.60958
     55       2.00000          -6.416784         -174.60958
     56       2.00000          -6.416784         -174.60958
     57       2.00000          -6.416633         -174.60546
     58       2.00000          -6.416633         -174.60546
     59       2.00000          -6.416633         -174.60546
     60       2.00000          -6.416633         -174.60546
     61       2.00000          -6.416515         -174.60226
     62       2.00000          -6.416515         -174.60226
     63       2.00000          -6.416515         -174.60226
     64       2.00000          -6.416515         -174.60226
     65       2.00000          -6.416467         -174.60094
     66       2.00000          -6.416467         -174.60094
     67       2.00000          -6.416467         -174.60094
     68       2.00000          -6.416467         -174.60094
     69       2.00000          -2.014282          -54.81139
     70       2.00000          -2.010259          -54.70193
     71       2.00000          -2.009783          -54.68898
     72       2.00000          -2.009758          -54.68829
     73       2.00000          -1.305956          -35.53688
     74       2.00000          -1.289614          -35.09218
     75       2.00000          -1.284282          -34.94708
     76       2.00000          -1.268521          -34.51820
     77       2.00000          -1.246040          -33.90647
     78       2.00000          -1.242807          -33.81849
     79       2.00000          -1.239546          -33.72975
     80       2.00000          -1.226361          -33.37097
     81       2.00000          -1.223255          -33.28647
     82       2.00000          -1.219817          -33.19291
     83       2.00000          -1.212507          -32.99400
     84       2.00000          -1.209155          -32.90278
     85       2.00000          -1.199367          -32.63643
     86       2.00000          -1.191772          -32.42976
     87       2.00000          -1.178712          -32.07437
     88       2.00000          -1.167411          -31.76686
     89       2.00000          -1.046223          -28.46918
     90       2.00000          -1.026547          -27.93376
     91       2.00000          -1.017201          -27.67945
     92       2.00000          -1.002954          -27.29178
     93       2.00000          -0.949664          -25.84168
     94       2.00000          -0.912325          -24.82564
     95       2.00000          -0.899726          -24.48279
     96       2.00000          -0.832338          -22.64908
     97       2.00000          -0.711325          -19.35613
     98       2.00000          -0.700428          -19.05962
     99       2.00000          -0.690619          -18.79271
    100       2.00000          -0.667124          -18.15336
    101       2.00000          -0.645516          -17.56540
    102       2.00000          -0.626435          -17.04616
    103       2.00000          -0.621399          -16.90913
    104       2.00000          -0.593484          -16.14951
    105       2.00000          -0.578783          -15.74950
    106       2.00000          -0.576918          -15.69872
    107       2.00000          -0.576836          -15.69650
    108       2.00000          -0.571440          -15.54967
    109       2.00000          -0.551849          -15.01658
    110       2.00000          -0.540475          -14.70706
    111       2.00000          -0.539062          -14.66862
    112       2.00000          -0.519265          -14.12993
    113       2.00000          -0.511284          -13.91274
    114       2.00000          -0.509224          -13.85668
    115       2.00000          -0.506434          -13.78077
    116       2.00000          -0.505638          -13.75910
    117       2.00000          -0.481352          -13.09825
    118       2.00000          -0.479322          -13.04302
    119       2.00000          -0.477096          -12.98245
    120       2.00000          -0.473684          -12.88959
    121       2.00000          -0.448955          -12.21669
    122       2.00000          -0.443611          -12.07127
    123       2.00000          -0.421135          -11.45967
    124       2.00000          -0.394249          -10.72805
    125       2.00000          -0.373567          -10.16528
    126       2.00000          -0.366322           -9.96813
    127       2.00000          -0.334340           -9.09785
    128       2.00000          -0.309880           -8.43227
    129       0.00000          -0.179712           -4.89021
    130       0.00000          -0.169857           -4.62205
    131       0.00000          -0.154398           -4.20140
    132       0.00000          -0.149938           -4.08001
    133       0.00000          -0.134869           -3.66998
    134       0.00000          -0.131241           -3.57124
    135       0.00000          -0.129846           -3.53330
    136       0.00000          -0.119321           -3.24689
    137       0.00000          -0.117133           -3.18734
    138       0.00000          -0.096793           -2.63388
    139       0.00000          -0.070931           -1.93013
    140       0.00000          -0.060859           -1.65606
    141       0.00000          -0.060193           -1.63793
    142       0.00000          -0.053303           -1.45044
    143       0.00000          -0.052958           -1.44106
    144       0.00000          -0.052254           -1.42191
    145       0.00000          -0.045941           -1.25012
    146       0.00000          -0.038154           -1.03821
    147       0.00000          -0.017886           -0.48670
    148       0.00000          -0.017093           -0.46513
    149       0.00000           0.007227            0.19666
    150       0.00000           0.038860            1.05742
    151       0.00000           0.048457            1.31858
    152       0.00000           0.078348            2.13196
    153       0.00000           0.090139            2.45281
    154       0.00000           0.121919            3.31759
    155       0.00000           0.147399            4.01092
    156       0.00000           0.182313            4.96100
    157       0.00000           0.210062            5.71609
    158       0.00000           0.227648            6.19461
    159       0.00000           0.253726            6.90423
    160       0.00000           0.263902            7.18114
    161       0.00000           0.304301            8.28046
    162       0.00000           0.324700            8.83553
    163       0.00000           0.333042            9.06253
    164       0.00000           0.334076            9.09067
    165       0.00000           0.352713            9.59782
    166       0.00000           0.368745           10.03407
    167       0.00000           0.431595           11.74430
    168       0.00000           0.434731           11.82963
    169       0.00000           0.434798           11.83145
    170       0.00000           0.456280           12.41601
    171       0.00000           0.465620           12.67016
    172       0.00000           0.485797           13.21922
    173       0.00000           0.486215           13.23059
    174       0.00000           0.507456           13.80858
    175       0.00000           0.520021           14.15048
    176       0.00000           0.545346           14.83962
    177       0.00000           0.565139           15.37821
    178       0.00000           0.605448           16.47507
    179       0.00000           0.608022           16.54512
    180       0.00000           0.611598           16.64243
    181       0.00000           0.652995           17.76890
    182       0.00000           0.659076           17.93437
    183       0.00000           0.670310           18.24007
    184       0.00000           0.683130           18.58892
    185       0.00000           0.687942           18.71986
    186       0.00000           0.690071           18.77779

  What follows are estimated values for band gap, HOMO, LUMO, etc.
  | They are estimated on a discrete k-point grid and not necessarily exact.
  | For converged numbers, create a DOS and/or band structure plot on a denser k-grid.

  Highest occupied state (VBM) at     -8.42724612 eV (relative to internal zero)
  | Occupation number:      2.00000000
  | K-point:      27 at    0.400000    0.000000    0.000000 (in units of recip. lattice)

  Lowest unoccupied state (CBM) at    -4.96070454 eV (relative to internal zero)
  | Occupation number:      0.00000000
  | K-point:      28 at    0.400000    0.000000    0.200000 (in units of recip. lattice)

  ESTIMATED overall HOMO-LUMO gap:      3.46654159 eV between HOMO at k-point 27 and LUMO at k-point 28
  | This appears to be an indirect band gap.
  | Smallest direct gap :      3.50099156 eV for k_point 27 at    0.400000    0.000000    0.000000 (in units of recip. lattice)
  The gap value is above 0.2 eV. Unless you are using a very sparse k-point grid,
  this system is most likely an insulator or a semiconductor.
  Calculating total energy contributions from superposition of free atom densities.

  Total energy components:
  | Sum of eigenvalues            :       -9229.74460666 Ha     -251154.12932874 eV
  | XC energy correction          :        -539.73406144 Ha      -14686.91107372 eV
  | XC potential correction       :         714.64142726 Ha       19446.38265687 eV
  | Free-atom electrostatic energy:       -6348.54161113 Ha     -172752.60679468 eV
  | Hartree energy correction     :           0.00000000 Ha           0.00000000 eV
  | DFT+U energy correction       :           0.00000000 Ha           0.00000000 eV
  | Entropy correction            :          -0.00000000 Ha          -0.00000000 eV
  | ---------------------------
  | Total energy                  :      -15403.37885198 Ha     -419147.26454027 eV
  | Total energy, T -> 0          :      -15403.37885198 Ha     -419147.26454027 eV  <-- do not rely on this value for anything but (periodic) metals
  | Electronic free energy        :      -15403.37885198 Ha     -419147.26454027 eV

  Derived energy quantities:
  | Kinetic energy                :       15808.30380406 Ha      430165.83310521 eV
  | Electrostatic energy          :      -30671.94859459 Ha     -834626.18657176 eV
  | Energy correction for multipole
  | error in Hartree potential    :           0.00000000 Ha           0.00000000 eV
  | Sum of eigenvalues per atom                           :      -15697.13308305 eV
  | Total energy (T->0) per atom                          :      -26196.70403377 eV  <-- do not rely on this value for anything but (periodic) metals
  | Electronic free energy per atom                       :      -26196.70403377 eV
  Initialize hartree_potential_storage
  Max. number of atoms included in rho_multipole:           16

  End scf initialization - timings             :  max(cpu_time)    wall_clock(cpu1)
  | Time for scf. initialization               :        1.580 s           1.585 s
  | Boundary condition initialization          :        0.181 s           0.181 s
  | Integration                                :        0.540 s           0.539 s
  | Solution of K.-S. eqns.                    :        0.187 s           0.132 s
  | Grid partitioning                          :        0.052 s           0.053 s
[...]
     65       2.00000          -6.617535         -180.07230
     66       2.00000          -6.617533         -180.07224
     67       2.00000          -6.617529         -180.07214
     68       2.00000          -6.617529         -180.07213
     69       2.00000          -2.163474          -58.87112
     70       2.00000          -2.160550          -58.79155
     71       2.00000          -2.160194          -58.78188
     72       2.00000          -2.160161          -58.78097
     73       2.00000          -1.377024          -37.47073
     74       2.00000          -1.367649          -37.21562
     75       2.00000          -1.362419          -37.07331
     76       2.00000          -1.348651          -36.69866
     77       2.00000          -1.341442          -36.50248
     78       2.00000          -1.336747          -36.37474
     79       2.00000          -1.336650          -36.37211
     80       2.00000          -1.333986          -36.29961
     81       2.00000          -1.330985          -36.21795
     82       2.00000          -1.328835          -36.15943
     83       2.00000          -1.324437          -36.03978
     84       2.00000          -1.323650          -36.01835
     85       2.00000          -1.237279          -33.66807
     86       2.00000          -1.219762          -33.19143
     87       2.00000          -1.217267          -33.12351
     88       2.00000          -1.211943          -32.97865
     89       2.00000          -1.017339          -27.68321
     90       2.00000          -1.013887          -27.58926
     91       2.00000          -1.002983          -27.29257
     92       2.00000          -0.998871          -27.18067
     93       2.00000          -0.953552          -25.94747
     94       2.00000          -0.901033          -24.51834
     95       2.00000          -0.887436          -24.14835
     96       2.00000          -0.816064          -22.20623
     97       2.00000          -0.661730          -18.00660
     98       2.00000          -0.654064          -17.79800
     99       2.00000          -0.645588          -17.56733
    100       2.00000          -0.631304          -17.17867
    101       2.00000          -0.612291          -16.66129
    102       2.00000          -0.587177          -15.97790
    103       2.00000          -0.586346          -15.95528
    104       2.00000          -0.542620          -14.76545
    105       2.00000          -0.540063          -14.69588
    106       2.00000          -0.525246          -14.29266
    107       2.00000          -0.519835          -14.14544
    108       2.00000          -0.516237          -14.04751
    109       2.00000          -0.501598          -13.64918
    110       2.00000          -0.487775          -13.27304
    111       2.00000          -0.486499          -13.23830
    112       2.00000          -0.455127          -12.38462
    113       2.00000          -0.454006          -12.35413
    114       2.00000          -0.447160          -12.16786
    115       2.00000          -0.439663          -11.96384
    116       2.00000          -0.432917          -11.78028
    117       2.00000          -0.413193          -11.24356
    118       2.00000          -0.404784          -11.01472
    119       2.00000          -0.403377          -10.97646
    120       2.00000          -0.398677          -10.84854
    121       2.00000          -0.384657          -10.46704
    122       2.00000          -0.366669           -9.97757
    123       2.00000          -0.356882           -9.71126
    124       2.00000          -0.334505           -9.10235
    125       2.00000          -0.320447           -8.71981
    126       2.00000          -0.299773           -8.15723
    127       2.00000          -0.268575           -7.30831
    128       2.00000          -0.238804           -6.49820
    129       0.00000          -0.187453           -5.10084
    130       0.00000          -0.169749           -4.61909
    131       0.00000          -0.152136           -4.13984
    132       0.00000          -0.147930           -4.02538
    133       0.00000          -0.139205           -3.78795
    134       0.00000          -0.138006           -3.75533
    135       0.00000          -0.134399           -3.65719
    136       0.00000          -0.121864           -3.31609
    137       0.00000          -0.110774           -3.01430
    138       0.00000          -0.083890           -2.28276
    139       0.00000          -0.077239           -2.10179
    140       0.00000          -0.076191           -2.07327
    141       0.00000          -0.075000           -2.04085
    142       0.00000          -0.068950           -1.87622
    143       0.00000          -0.063256           -1.72128
    144       0.00000          -0.049728           -1.35316
    145       0.00000          -0.046034           -1.25265
    146       0.00000          -0.037522           -1.02103
    147       0.00000          -0.030532           -0.83082
    148       0.00000           0.004274            0.11629
    149       0.00000           0.050227            1.36674
    150       0.00000           0.081080            2.20629
    151       0.00000           0.085808            2.33495
    152       0.00000           0.118903            3.23551
    153       0.00000           0.128611            3.49968
    154       0.00000           0.167728            4.56411
    155       0.00000           0.186751            5.08176
    156       0.00000           0.248898            6.77286
    157       0.00000           0.270991            7.37404
    158       0.00000           0.282136            7.67732
    159       0.00000           0.321410            8.74601
    160       0.00000           0.331853            9.03019
    161       0.00000           0.356295            9.69529
    162       0.00000           0.385130           10.47992
    163       0.00000           0.397405           10.81394
    164       0.00000           0.397917           10.82788
    165       0.00000           0.429870           11.69736
    166       0.00000           0.434885           11.83382
    167       0.00000           0.456164           12.41285
    168       0.00000           0.468069           12.73681
    169       0.00000           0.492748           13.40836
    170       0.00000           0.498255           13.55822
    171       0.00000           0.537525           14.62680
    172       0.00000           0.544119           14.80623
    173       0.00000           0.556000           15.12953
    174       0.00000           0.559934           15.23657
    175       0.00000           0.584439           15.90340
    176       0.00000           0.591891           16.10618
    177       0.00000           0.607105           16.52017
    178       0.00000           0.648254           17.63990
    179       0.00000           0.668781           18.19845
    180       0.00000           0.689010           18.74891
    181       0.00000           0.700582           19.06380
    182       0.00000           0.727171           19.78732
    183       0.00000           0.727191           19.78786
    184       0.00000           0.739144           20.11314
    185       0.00000           0.745780           20.29371
    186       0.00000           0.749163           20.38576

  What follows are estimated values for band gap, HOMO, LUMO, etc.
  | They are estimated on a discrete k-point grid and not necessarily exact.
  | For converged numbers, create a DOS and/or band structure plot on a denser k-grid.

  Highest occupied state (VBM) at     -6.45334716 eV (relative to internal zero)
  | Occupation number:      2.00000000
  | K-point:      27 at    0.400000    0.000000    0.000000 (in units of recip. lattice)

  Lowest unoccupied state (CBM) at    -5.35252025 eV (relative to internal zero)
  | Occupation number:      0.00000000
  | K-point:      27 at    0.400000    0.000000    0.000000 (in units of recip. lattice)

  ESTIMATED overall HOMO-LUMO gap:      1.10082691 eV between HOMO at k-point 27 and LUMO at k-point 27
  | This appears to be a direct band gap.
  The gap value is above 0.2 eV. Unless you are using a very sparse k-point grid,
  this system is most likely an insulator or a semiconductor.

  Self-consistency cycle converged.

  End self-consistency iteration #    26       :  max(cpu_time)    wall_clock(cpu1)
  | Time for this iteration                    :        0.841 s           0.840 s
  | Charge density & force component update    :        0.000 s           0.000 s
  | Density mixing                             :        0.008 s           0.004 s
  | Hartree multipole update                   :        0.002 s           0.002 s
  | Hartree multipole summation                :        0.368 s           0.368 s
  | Integration                                :        0.413 s           0.414 s
  | Solution of K.-S. eqns.                    :        0.048 s           0.048 s
  | Total energy evaluation                    :        0.002 s           0.002 s

  Partial memory accounting:
  | Current value for overall tracked memory usage:
  |   Minimum:       14.897 MB (on task  0)
  |   Maximum:       15.827 MB (on task  1)
  |   Average:       15.490 MB
  | Peak value for overall tracked memory usage:
  |   Minimum:       37.108 MB (on task 58 after allocating d_wave)
  |   Maximum:       40.936 MB (on task 45 after allocating d_wave)
  |   Average:       39.161 MB
  | Largest tracked array allocation so far:
  |   Minimum:        6.811 MB (overlap_matrix on task  9)
  |   Maximum:        7.814 MB (hamiltonian_shell on task 45)
  |   Average:        7.154 MB
  Note:  These values currently only include a subset of arrays which are explicitly tracked.
  The "true" memory usage will be greater.
------------------------------------------------------------
  Removing unitary transformations (pure translations, rotations) from forces on atoms.
  Atomic forces before filtering:
  | Net force on center of mass :  -0.476301E-07 -0.305538E-06  0.258794E-06 eV/A
  Atomic forces after filtering:
  | Net force on center of mass :   0.139380E-17  0.116785E-17 -0.136113E-19 eV/A

  Energy and forces in a compact form:
  | Total energy uncorrected      :         -0.420199570851776E+06 eV
  | Total energy corrected        :         -0.420199570851776E+06 eV  <-- do not rely on this value for anything but (periodic) metals
  | Electronic free energy        :         -0.420199570851776E+06 eV
  Total atomic forces (unitary forces cleaned) [eV/Ang]:
  |    1         -0.828452756750934E-02         -0.670357895922611E-03         -0.184950995401850E-04
  |    2          0.828562796909709E-02          0.669921919459568E-03          0.191524906595429E-04
  |    3         -0.828592479179094E-02          0.670116673433754E-03         -0.200958528901409E-04
  |    4          0.828455744919095E-02         -0.669558263720734E-03          0.205264062136751E-04
  |    5         -0.264406458812795E-02         -0.230299624917358E-02          0.684069764280632E-04
  |    6          0.271054632771569E-02          0.235578392873933E-02          0.113656828213652E-03
  |    7         -0.273857595228912E-02          0.243346116017139E-02         -0.118183023935945E-03
  |    8          0.260813489675410E-02         -0.221085142660894E-02         -0.667882339524297E-04
  |    9          0.263956237021732E-02          0.229432573431324E-02         -0.694875093212075E-04
  |   10         -0.270572026890738E-02         -0.234729207471069E-02         -0.114583933581381E-03
  |   11          0.274169970909877E-02         -0.243918918984055E-02          0.118469580828421E-03
  |   12         -0.261135592595332E-02          0.221642364877380E-02          0.665188114697005E-04
  |   13         -0.955727774307703E-03          0.822130930803467E-05          0.126535078694185E-04
  |   14          0.928885964856346E-03          0.758845100241243E-05         -0.121584627257411E-04
  |   15          0.955875875748872E-03         -0.759716158412550E-05         -0.121995912310564E-04
  |   16         -0.928993693793400E-03         -0.800056364029655E-05          0.126071054956127E-04

  ------------------------------------ 
  Start decomposition of the XC Energy 
  ------------------------------------ 
  X and C from original XC functional choice 
  Hartree-Fock Energy :          0.000000000 Ha              0.000000000 eV
  X Energy            :       -567.366015440 Ha         -15438.814798367 eV
  C Energy            :        -13.392374954 Ha           -364.425064235 eV
  Total XC Energy     :       -580.758390394 Ha         -15803.239862602 eV
  ------------------------------------ 
  LDA X and C from self-consistent density 
  X Energy LDA        :       -519.766825662 Ha         -14143.574943429 eV
  C Energy LDA        :        -21.644964887 Ha           -588.989462025 eV
  ------------------------------------ 
  End decomposition of the XC Energy 
  ------------------------------------ 

------------------------------------------------------------

------------------------------------------------------------------------------
  Final output of selected total energy values:

  The following output summarizes some interesting total energy values
  at the end of a run (AFTER all relaxation, molecular dynamics, etc.).

  | Total energy of the DFT / Hartree-Fock s.c.f. calculation      :        -420199.570851776 eV
  | Final zero-broadening corrected energy (caution - metals only) :        -420199.570851776 eV
  | For reference only, the value of 1 Hartree used in FHI-aims is :             27.211384500 eV
  | For reference only, the overall average (free atom contribution
  | + realspace contribution) of the electrostatic potential after
  | s.c.f. convergence is                                          :            -23.358295373 eV

  Before relying on these values, please be sure to understand exactly which
  total energy value is referred to by a given number. Different objects may
  all carry the same name 'total energy'. Definitions:

  Total energy of the DFT / Hartree-Fock s.c.f. calculation:
  | Note that this energy does not include ANY quantities calculated after the
  | s.c.f. cycle, in particular not ANY RPA, MP2, etc. many-body perturbation terms.

  Final zero-broadening corrected energy:
  | For metallic systems only, a broadening of the occupation numbers at the Fermi
  | level can be extrapolated back to zero broadening by an electron-gas inspired
  | formula. For all systems that are not real metals, this value can be
  | meaningless and should be avoided.

------------------------------------------------------------------------------
  Methods described in the following list of references were used in this FHI-aims run.
  If you publish the results, please make sure to cite these reference if they apply.
  FHI-aims is an academic code, and for our developers (often, Ph.D. students
  and postdocs), scientific credit in the community is essential.
  Thank you for helping us!

  For any use of FHI-aims, please cite:

    Volker Blum, Ralf Gehrke, Felix Hanke, Paula Havu, Ville Havu,
    Xinguo Ren, Karsten Reuter, and Matthias Scheffler
    'Ab initio molecular simulations with numeric atom-centered orbitals'
    Computer Physics Communications 180, 2175-2196 (2009)
    http://dx.doi.org/10.1016/j.cpc.2009.06.022


  The provided symmetry information was generated with SPGlib:

    Atsushi Togo, Yusuke Seto, Dimitar Pashov
    SPGlib 1.7.3 obtained from http://spglib.sourceforge.net
    Copyright (C) 2008 Atsushi Togo


 DFT+U infrastructure was used in your run
 please cite:

 Matthias Kick, Karsten Reuter and Harald Oberhofer,
 Intricacies Of DFT+U, not only in a Numeric Atom Centered Orbital Framework

 Journal of Chemical Theory and Computation
 https://


  The ELSI infrastructure was used in your run to solve the Kohn-Sham electronic structure.
  Please check out http://elsi-interchange.org to learn more.
  If scalability is important for your project, please acknowledge ELSI by citing:

    V. W-z. Yu, F. Corsetti, A. Garcia, W. P. Huhn, M. Jacquelin, W. Jia,
    B. Lange, L. Lin, J. Lu, W. Mi, A. Seifitokaldani, A. Vazquez-Mayagoitia,
    C. Yang, H. Yang, and V. Blum
    'ELSI: A unified software interface for Kohn-Sham electronic structure solvers'
    Computer Physics Communications 222, 267-285 (2018).
    http://dx.doi.org/10.1016/j.cpc.2017.09.007


  For the real-space grid partitioning and parallelization used in this calculation, please cite:

    Ville Havu, Volker Blum, Paula Havu, and Matthias Scheffler,
    'Efficient O(N) integration for all-electron electronic structure calculation'
    'using numerically tabulated basis functions'
    Journal of Computational Physics 228, 8367-8379 (2009).
    http://dx.doi.org/10.1016/j.jcp.2009.08.008

  Of course, there are many other important community references, e.g., those cited in the
  above references. Our list is limited to references that describe implementations in the
  FHI-aims code. The reason is purely practical (length of this list) - please credit others as well.

 * A warning was issued further up regarding the CPU load.
   Some CPUs do not participate in the eigenvalue solution.
   In corner cases, this may be the correct behavior. Otherwise,
   consider using a scalapack/elpa version of the code for a parallel treatment.

------------------------------------------------------------
          Leaving FHI-aims.
          Date     :  20240509, Time     :  055402.460

          Computational steps:
          | Number of self-consistency cycles          :           26
          | Number of SCF (re)initializations          :            1

          Detailed time accounting                     :  max(cpu_time)    wall_clock(cpu1)
          | Total time                                 :       42.030 s          42.353 s
          | Preparation time                           :        0.465 s           0.479 s
          | Boundary condition initalization           :        0.181 s           0.181 s
          | Grid partitioning                          :        0.052 s           0.053 s
          | Preloading free-atom quantities on grid    :        0.211 s           0.222 s
          | Free-atom superposition energy             :        0.017 s           0.017 s
          | Total time for integrations                :       12.115 s          12.143 s
          | Total time for solution of K.-S. equations :        1.450 s           1.534 s
          | Total time for density & force components  :       19.024 s          19.052 s
          | Total time for mixing & preconditioning    :        3.637 s           3.492 s
          | Total time for Hartree multipole update    :        0.045 s           0.053 s
          | Total time for Hartree multipole sum       :        3.848 s           3.864 s
          | Total time for total energy evaluation     :        0.156 s           0.121 s
          | Total time for scaled ZORA corrections     :        0.000 s           0.000 s

          Partial memory accounting:
          | Residual value for overall tracked memory usage across tasks:     0.000000 MB (should be 0.000000 MB)
          | Peak values for overall tracked memory usage:
          |   Minimum:       37.108 MB (on task 58 after allocating d_wave)
          |   Maximum:       40.936 MB (on task 45 after allocating d_wave)
          |   Average:       39.161 MB
          | Largest tracked array allocation:
          |   Minimum:        6.811 MB (overlap_matrix on task  9)
          |   Maximum:        7.814 MB (hamiltonian_shell on task 45)
          |   Average:        7.154 MB
          Note:  These values currently only include a subset of arrays which are explicitly tracked.
          The "true" memory usage will be greater.

          Have a nice day.
------------------------------------------------------------
